<VTKFile type="UnstructuredGrid" version="1.0" byte_order="LittleEndian">
<UnstructuredGrid>
<Piece NumberOfPoints="63" NumberOfCells="24">
<PointData>
<DataArray type="Int32" Name="Node Tag" format="ascii">
1 2 3 4 5 6 7 8 9 10 11 12 13 14 15 16 17 18 19 20 21 22 23 24 25 26 27 28 29 30 31 32 33 34 35 36 37 38 39 40 41 42 43 44 45 46 47 48 49 50 51 52 53 54 55 56 57 58 59 60 61 62 63 
</DataArray>
<DataArray type="Float32" Name="Disp" NumberOfComponents="3" format="ascii">
0.0000000000e+00 0.0000000000e+00 0.0000000000e+00 
0.0000000000e+00 0.0000000000e+00 0.0000000000e+00 
0.0000000000e+00 0.0000000000e+00 0.0000000000e+00 
0.0000000000e+00 0.0000000000e+00 0.0000000000e+00 
0.0000000000e+00 0.0000000000e+00 0.0000000000e+00 
0.0000000000e+00 0.0000000000e+00 0.0000000000e+00 
0.0000000000e+00 0.0000000000e+00 0.0000000000e+00 
0.0000000000e+00 0.0000000000e+00 0.0000000000e+00 
0.0000000000e+00 0.0000000000e+00 0.0000000000e+00 
-9.1531899052e-05 -9.1531899053e-05 -1.2514716242e-04 
-1.1625679167e-04 -1.7494347135e-04 -1.7928046917e-04 
-1.7179904810e-04 -2.0681472892e-04 -1.0455219864e-04 
-1.7494347135e-04 -1.1625679167e-04 -1.7928046916e-04 
-1.5035743409e-04 -1.5035743409e-04 6.8364507240e-05 
-1.7417917170e-04 -2.1346976334e-04 1.4578830473e-04 
-2.0681472892e-04 -1.7179904811e-04 -1.0455219864e-04 
-2.1346976334e-04 -1.7417917170e-04 1.4578830474e-04 
-2.6067989079e-04 -2.6067989079e-04 3.7124411197e-04 
-7.7576065267e-04 -7.7576065268e-04 -7.8047081847e-04 
-6.3235918525e-04 -7.1309457472e-04 -3.6484437048e-04 
-5.2699556992e-04 -6.8441239673e-04 -6.6055505961e-05 
-7.1309457472e-04 -6.3235918526e-04 -3.6484437048e-04 
-7.1667982950e-04 -7.1667982951e-04 -4.8300436366e-05 
-7.3815918766e-04 -7.1309868926e-04 4.6580605448e-04 
-6.8441239673e-04 -5.2699556992e-04 -6.6055505956e-05 
-7.1309868926e-04 -7.3815918766e-04 4.6580605448e-04 
-7.8378721975e-04 -7.8378721976e-04 9.7463937413e-04 
-1.8849763151e-03 -1.8849763151e-03 -1.1397803409e-03 
-1.8417514761e-03 -1.8815194625e-03 -6.4877655765e-04 
-1.8263765132e-03 -1.7957650717e-03 -7.0857988348e-05 
-1.8815194625e-03 -1.8417514761e-03 -6.4877655764e-04 
-1.8755197334e-03 -1.8755197334e-03 6.7630739774e-05 
-1.8698777276e-03 -1.8158656314e-03 5.6718461897e-04 
-1.7957650717e-03 -1.8263765132e-03 -7.0857988342e-05 
-1.8158656314e-03 -1.8698777276e-03 5.6718461897e-04 
-1.8896011492e-03 -1.8896011492e-03 1.2584684135e-03 
-2.7224342576e-03 -2.7224342576e-03 -7.9605090109e-04 
-2.8717475209e-03 -2.8497448833e-03 -3.9210968625e-04 
-2.9832986779e-03 -2.9926495154e-03 1.7447917613e-05 
-2.8497448833e-03 -2.8717475209e-03 -3.9210968624e-04 
-2.8510956316e-03 -2.8510956316e-03 -4.0199355666e-05 
-2.8812041891e-03 -2.9723566461e-03 4.8516747302e-04 
-2.9926495154e-03 -2.9832986779e-03 1.7447917619e-05 
-2.9723566461e-03 -2.8812041891e-03 4.8516747303e-04 
-2.6957243584e-03 -2.6957243584e-03 8.4487290015e-04 
-3.2883536492e-03 -3.2883536492e-03 -6.7717763055e-04 
-3.1717481860e-03 -3.2352738397e-03 -2.2840630843e-04 
-3.0410140589e-03 -3.1652984176e-03 2.7757107998e-04 
-3.2352738397e-03 -3.1717481860e-03 -2.2840630843e-04 
-3.2953116663e-03 -3.2953116663e-03 -2.9495075320e-05 
-3.2284893623e-03 -3.1678666233e-03 1.7272056470e-04 
-3.1652984176e-03 -3.0410140589e-03 2.7757107999e-04 
-3.1678666233e-03 -3.2284893623e-03 1.7272056470e-04 
-3.2871057488e-03 -3.2871057488e-03 3.7248966112e-04 
-3.5626243842e-03 -3.5626243842e-03 -8.0222585787e-04 
-3.5636471477e-03 -3.4395921980e-03 -1.8585069378e-04 
-3.5922344909e-03 -3.4724440316e-03 2.0968536145e-04 
-3.4395921980e-03 -3.5636471477e-03 -1.8585069377e-04 
-3.4339328790e-03 -3.4339328790e-03 1.5425537792e-05 
-3.4049121801e-03 -3.4026901733e-03 1.2294863001e-04 
-3.4724440316e-03 -3.5922344909e-03 2.0968536146e-04 
-3.4026901733e-03 -3.4049121801e-03 1.2294863002e-04 
-3.3461978634e-03 -3.3461978634e-03 1.6747946271e-04 

</DataArray>
</PointData>
<CellData>
<DataArray type="Int32" Name="Element Tag" format="ascii">
1 2 3 4 5 6 7 8 9 10 11 12 13 14 15 16 17 18 19 20 21 22 23 24 
</DataArray>
<DataArray type="Int32" Name="Element Class" format="ascii">
56 56 56 56 56 56 56 56 56 56 56 56 56 56 56 56 56 56 56 56 56 56 56 56 
</DataArray>
</CellData>
<Points>
<DataArray type="Float32" Name="Points" NumberOfComponents="3" format="ascii">
-1.0000000000e+00 -1.0000000000e+00 0.0000000000e+00 
0.0000000000e+00 -1.0000000000e+00 0.0000000000e+00 
1.0000000000e+00 -1.0000000000e+00 0.0000000000e+00 
-1.0000000000e+00 0.0000000000e+00 0.0000000000e+00 
0.0000000000e+00 0.0000000000e+00 0.0000000000e+00 
1.0000000000e+00 0.0000000000e+00 0.0000000000e+00 
-1.0000000000e+00 1.0000000000e+00 0.0000000000e+00 
0.0000000000e+00 1.0000000000e+00 0.0000000000e+00 
1.0000000000e+00 1.0000000000e+00 0.0000000000e+00 
-1.0000000000e+00 -1.0000000000e+00 1.6666666667e+00 
0.0000000000e+00 -1.0000000000e+00 1.6666666667e+00 
1.0000000000e+00 -1.0000000000e+00 1.6666666667e+00 
-1.0000000000e+00 0.0000000000e+00 1.6666666667e+00 
0.0000000000e+00 0.0000000000e+00 1.6666666667e+00 
1.0000000000e+00 0.0000000000e+00 1.6666666667e+00 
-1.0000000000e+00 1.0000000000e+00 1.6666666667e+00 
0.0000000000e+00 1.0000000000e+00 1.6666666667e+00 
1.0000000000e+00 1.0000000000e+00 1.6666666667e+00 
-1.0000000000e+00 -1.0000000000e+00 3.3333333333e+00 
0.0000000000e+00 -1.0000000000e+00 3.3333333333e+00 
1.0000000000e+00 -1.0000000000e+00 3.3333333333e+00 
-1.0000000000e+00 0.0000000000e+00 3.3333333333e+00 
0.0000000000e+00 0.0000000000e+00 3.3333333333e+00 
1.0000000000e+00 0.0000000000e+00 3.3333333333e+00 
-1.0000000000e+00 1.0000000000e+00 3.3333333333e+00 
0.0000000000e+00 1.0000000000e+00 3.3333333333e+00 
1.0000000000e+00 1.0000000000e+00 3.3333333333e+00 
-1.0000000000e+00 -1.0000000000e+00 5.0000000000e+00 
0.0000000000e+00 -1.0000000000e+00 5.0000000000e+00 
1.0000000000e+00 -1.0000000000e+00 5.0000000000e+00 
-1.0000000000e+00 0.0000000000e+00 5.0000000000e+00 
0.0000000000e+00 0.0000000000e+00 5.0000000000e+00 
1.0000000000e+00 0.0000000000e+00 5.0000000000e+00 
-1.0000000000e+00 1.0000000000e+00 5.0000000000e+00 
0.0000000000e+00 1.0000000000e+00 5.0000000000e+00 
1.0000000000e+00 1.0000000000e+00 5.0000000000e+00 
-1.0000000000e+00 -1.0000000000e+00 6.6666666667e+00 
0.0000000000e+00 -1.0000000000e+00 6.6666666667e+00 
1.0000000000e+00 -1.0000000000e+00 6.6666666667e+00 
-1.0000000000e+00 0.0000000000e+00 6.6666666667e+00 
0.0000000000e+00 0.0000000000e+00 6.6666666667e+00 
1.0000000000e+00 0.0000000000e+00 6.6666666667e+00 
-1.0000000000e+00 1.0000000000e+00 6.6666666667e+00 
0.0000000000e+00 1.0000000000e+00 6.6666666667e+00 
1.0000000000e+00 1.0000000000e+00 6.6666666667e+00 
-1.0000000000e+00 -1.0000000000e+00 8.3333333333e+00 
0.0000000000e+00 -1.0000000000e+00 8.3333333333e+00 
1.0000000000e+00 -1.0000000000e+00 8.3333333333e+00 
-1.0000000000e+00 0.0000000000e+00 8.3333333333e+00 
0.0000000000e+00 0.0000000000e+00 8.3333333333e+00 
1.0000000000e+00 0.0000000000e+00 8.3333333333e+00 
-1.0000000000e+00 1.0000000000e+00 8.3333333333e+00 
0.0000000000e+00 1.0000000000e+00 8.3333333333e+00 
1.0000000000e+00 1.0000000000e+00 8.3333333333e+00 
-1.0000000000e+00 -1.0000000000e+00 1.0000000000e+01 
0.0000000000e+00 -1.0000000000e+00 1.0000000000e+01 
1.0000000000e+00 -1.0000000000e+00 1.0000000000e+01 
-1.0000000000e+00 0.0000000000e+00 1.0000000000e+01 
0.0000000000e+00 0.0000000000e+00 1.0000000000e+01 
1.0000000000e+00 0.0000000000e+00 1.0000000000e+01 
-1.0000000000e+00 1.0000000000e+00 1.0000000000e+01 
0.0000000000e+00 1.0000000000e+00 1.0000000000e+01 
1.0000000000e+00 1.0000000000e+00 1.0000000000e+01 
</DataArray>
</Points>
<Cells>
<DataArray type="Int64" Name="connectivity" format="ascii">
0 1 4 3 9 10 13 12 
1 2 5 4 10 11 14 13 
3 4 7 6 12 13 16 15 
4 5 8 7 13 14 17 16 
9 10 13 12 18 19 22 21 
10 11 14 13 19 20 23 22 
12 13 16 15 21 22 25 24 
13 14 17 16 22 23 26 25 
18 19 22 21 27 28 31 30 
19 20 23 22 28 29 32 31 
21 22 25 24 30 31 34 33 
22 23 26 25 31 32 35 34 
27 28 31 30 36 37 40 39 
28 29 32 31 37 38 41 40 
30 31 34 33 39 40 43 42 
31 32 35 34 40 41 44 43 
36 37 40 39 45 46 49 48 
37 38 41 40 46 47 50 49 
39 40 43 42 48 49 52 51 
40 41 44 43 49 50 53 52 
45 46 49 48 54 55 58 57 
46 47 50 49 55 56 59 58 
48 49 52 51 57 58 61 60 
49 50 53 52 58 59 62 61 
</DataArray>
<DataArray type="Int64" Name="offsets" format="ascii">
8 16 24 32 40 48 56 64 72 80 88 96 104 112 120 128 136 144 152 160 168 176 184 192 
</DataArray>
<DataArray type="Int64" Name="types" format="ascii">
12 12 12 12 12 12 12 12 12 12 12 12 12 12 12 12 12 12 12 12 12 12 12 12 
</DataArray>
</Cells>
</Piece>
</UnstructuredGrid>
</VTKFile>
