<VTKFile type="UnstructuredGrid" version="1.0" byte_order="LittleEndian">
<UnstructuredGrid>
<Piece NumberOfPoints="63" NumberOfCells="24">
<PointData>
<DataArray type="Int32" Name="Node Tag" format="ascii">
1 2 3 4 5 6 7 8 9 10 11 12 13 14 15 16 17 18 19 20 21 22 23 24 25 26 27 28 29 30 31 32 33 34 35 36 37 38 39 40 41 42 43 44 45 46 47 48 49 50 51 52 53 54 55 56 57 58 59 60 61 62 63 
</DataArray>
<DataArray type="Float32" Name="Disp" NumberOfComponents="3" format="ascii">
0.0000000000e+00 0.0000000000e+00 0.0000000000e+00 
0.0000000000e+00 0.0000000000e+00 0.0000000000e+00 
0.0000000000e+00 0.0000000000e+00 0.0000000000e+00 
0.0000000000e+00 0.0000000000e+00 0.0000000000e+00 
0.0000000000e+00 0.0000000000e+00 0.0000000000e+00 
0.0000000000e+00 0.0000000000e+00 0.0000000000e+00 
0.0000000000e+00 0.0000000000e+00 0.0000000000e+00 
0.0000000000e+00 0.0000000000e+00 0.0000000000e+00 
0.0000000000e+00 0.0000000000e+00 0.0000000000e+00 
6.4008892103e-04 6.4008892103e-04 1.0154646424e-03 
5.3503584638e-04 5.8754085784e-04 4.1134985950e-04 
5.1661365706e-04 4.4240959442e-04 -7.4226420916e-05 
5.8754085784e-04 5.3503584638e-04 4.1134985950e-04 
5.5810173654e-04 5.5810173654e-04 -6.2241084767e-05 
5.9933233046e-04 4.5735546041e-04 -4.1078370147e-04 
4.4240959442e-04 5.1661365706e-04 -7.4226420920e-05 
4.5735546040e-04 5.9933233047e-04 -4.1078370148e-04 
5.1053407713e-04 5.1053407713e-04 -8.3180821728e-04 
1.4453296013e-03 1.4453296013e-03 1.3448228370e-03 
1.4892893790e-03 1.4592078832e-03 5.6341211416e-04 
1.5638770792e-03 1.5298765725e-03 -1.4019333652e-04 
1.4592078832e-03 1.4892893790e-03 5.6341211416e-04 
1.4859652627e-03 1.4859652627e-03 4.2520419057e-05 
1.5455035463e-03 1.4719043412e-03 -6.3285532098e-04 
1.5298765725e-03 1.5638770792e-03 -1.4019333652e-04 
1.4719043412e-03 1.5455035463e-03 -6.3285532098e-04 
1.4983830850e-03 1.4983830850e-03 -1.1486448697e-03 
2.3662329798e-03 2.3662329798e-03 9.8021430917e-04 
2.4258917425e-03 2.4022658254e-03 5.4247687111e-04 
2.4853352000e-03 2.5512641238e-03 -5.4873306928e-05 
2.4022658254e-03 2.4258917426e-03 5.4247687111e-04 
2.3635673321e-03 2.3635673322e-03 -2.5093238412e-05 
2.3702312377e-03 2.3989702254e-03 -5.5600392106e-04 
2.5512641238e-03 2.4853352000e-03 -5.4873306936e-05 
2.3989702254e-03 2.3702312377e-03 -5.5600392106e-04 
2.2444480008e-03 2.2444480008e-03 -1.0371012171e-03 
3.2082901476e-03 3.2082901476e-03 1.0675020752e-03 
3.2090021706e-03 3.2330277348e-03 6.1989005031e-04 
3.1363836145e-03 3.0086071548e-03 1.5039478921e-04 
3.2330277348e-03 3.2090021706e-03 6.1989005030e-04 
3.2537523453e-03 3.2537523453e-03 5.6435733419e-05 
3.2580480073e-03 3.1671392451e-03 -5.4208367352e-04 
3.0086071548e-03 3.1363836145e-03 1.5039478920e-04 
3.1671392451e-03 3.2580480073e-03 -5.4208367353e-04 
3.2063639999e-03 3.2063639999e-03 -1.0224380672e-03 
4.3778664361e-03 4.3778664362e-03 1.3520031309e-03 
4.2979055340e-03 4.2162902711e-03 6.3707481248e-04 
4.3038138549e-03 4.2557166234e-03 1.3900405710e-04 
4.2162902710e-03 4.2979055340e-03 6.3707481247e-04 
4.2993426055e-03 4.2993426055e-03 -1.0602321509e-04 
4.3050231530e-03 4.1241316198e-03 -6.3296159881e-04 
4.2557166234e-03 4.3038138550e-03 1.3900405709e-04 
4.1241316198e-03 4.3050231530e-03 -6.3296159881e-04 
4.3406417548e-03 4.3406417548e-03 -1.6069411813e-03 
5.5579032010e-03 5.5579032010e-03 1.7791242225e-03 
5.4840256560e-03 5.7022599942e-03 7.1721718072e-04 
5.4666743404e-03 5.7700982257e-03 2.2396253550e-04 
5.7022599942e-03 5.4840256561e-03 7.1721718072e-04 
5.5729222215e-03 5.5729222216e-03 -5.4867610550e-05 
5.5083670812e-03 5.8091412157e-03 -7.6953960653e-04 
5.7700982257e-03 5.4666743404e-03 2.2396253549e-04 
5.8091412157e-03 5.5083670813e-03 -7.6953960654e-04 
5.6991117131e-03 5.6991117131e-03 -1.8763860607e-03 

</DataArray>
</PointData>
<CellData>
<DataArray type="Int32" Name="Element Tag" format="ascii">
1 2 3 4 5 6 7 8 9 10 11 12 13 14 15 16 17 18 19 20 21 22 23 24 
</DataArray>
<DataArray type="Int32" Name="Element Class" format="ascii">
56 56 56 56 56 56 56 56 56 56 56 56 56 56 56 56 56 56 56 56 56 56 56 56 
</DataArray>
</CellData>
<Points>
<DataArray type="Float32" Name="Points" NumberOfComponents="3" format="ascii">
-1.0000000000e+00 -1.0000000000e+00 0.0000000000e+00 
0.0000000000e+00 -1.0000000000e+00 0.0000000000e+00 
1.0000000000e+00 -1.0000000000e+00 0.0000000000e+00 
-1.0000000000e+00 0.0000000000e+00 0.0000000000e+00 
0.0000000000e+00 0.0000000000e+00 0.0000000000e+00 
1.0000000000e+00 0.0000000000e+00 0.0000000000e+00 
-1.0000000000e+00 1.0000000000e+00 0.0000000000e+00 
0.0000000000e+00 1.0000000000e+00 0.0000000000e+00 
1.0000000000e+00 1.0000000000e+00 0.0000000000e+00 
-1.0000000000e+00 -1.0000000000e+00 1.6666666667e+00 
0.0000000000e+00 -1.0000000000e+00 1.6666666667e+00 
1.0000000000e+00 -1.0000000000e+00 1.6666666667e+00 
-1.0000000000e+00 0.0000000000e+00 1.6666666667e+00 
0.0000000000e+00 0.0000000000e+00 1.6666666667e+00 
1.0000000000e+00 0.0000000000e+00 1.6666666667e+00 
-1.0000000000e+00 1.0000000000e+00 1.6666666667e+00 
0.0000000000e+00 1.0000000000e+00 1.6666666667e+00 
1.0000000000e+00 1.0000000000e+00 1.6666666667e+00 
-1.0000000000e+00 -1.0000000000e+00 3.3333333333e+00 
0.0000000000e+00 -1.0000000000e+00 3.3333333333e+00 
1.0000000000e+00 -1.0000000000e+00 3.3333333333e+00 
-1.0000000000e+00 0.0000000000e+00 3.3333333333e+00 
0.0000000000e+00 0.0000000000e+00 3.3333333333e+00 
1.0000000000e+00 0.0000000000e+00 3.3333333333e+00 
-1.0000000000e+00 1.0000000000e+00 3.3333333333e+00 
0.0000000000e+00 1.0000000000e+00 3.3333333333e+00 
1.0000000000e+00 1.0000000000e+00 3.3333333333e+00 
-1.0000000000e+00 -1.0000000000e+00 5.0000000000e+00 
0.0000000000e+00 -1.0000000000e+00 5.0000000000e+00 
1.0000000000e+00 -1.0000000000e+00 5.0000000000e+00 
-1.0000000000e+00 0.0000000000e+00 5.0000000000e+00 
0.0000000000e+00 0.0000000000e+00 5.0000000000e+00 
1.0000000000e+00 0.0000000000e+00 5.0000000000e+00 
-1.0000000000e+00 1.0000000000e+00 5.0000000000e+00 
0.0000000000e+00 1.0000000000e+00 5.0000000000e+00 
1.0000000000e+00 1.0000000000e+00 5.0000000000e+00 
-1.0000000000e+00 -1.0000000000e+00 6.6666666667e+00 
0.0000000000e+00 -1.0000000000e+00 6.6666666667e+00 
1.0000000000e+00 -1.0000000000e+00 6.6666666667e+00 
-1.0000000000e+00 0.0000000000e+00 6.6666666667e+00 
0.0000000000e+00 0.0000000000e+00 6.6666666667e+00 
1.0000000000e+00 0.0000000000e+00 6.6666666667e+00 
-1.0000000000e+00 1.0000000000e+00 6.6666666667e+00 
0.0000000000e+00 1.0000000000e+00 6.6666666667e+00 
1.0000000000e+00 1.0000000000e+00 6.6666666667e+00 
-1.0000000000e+00 -1.0000000000e+00 8.3333333333e+00 
0.0000000000e+00 -1.0000000000e+00 8.3333333333e+00 
1.0000000000e+00 -1.0000000000e+00 8.3333333333e+00 
-1.0000000000e+00 0.0000000000e+00 8.3333333333e+00 
0.0000000000e+00 0.0000000000e+00 8.3333333333e+00 
1.0000000000e+00 0.0000000000e+00 8.3333333333e+00 
-1.0000000000e+00 1.0000000000e+00 8.3333333333e+00 
0.0000000000e+00 1.0000000000e+00 8.3333333333e+00 
1.0000000000e+00 1.0000000000e+00 8.3333333333e+00 
-1.0000000000e+00 -1.0000000000e+00 1.0000000000e+01 
0.0000000000e+00 -1.0000000000e+00 1.0000000000e+01 
1.0000000000e+00 -1.0000000000e+00 1.0000000000e+01 
-1.0000000000e+00 0.0000000000e+00 1.0000000000e+01 
0.0000000000e+00 0.0000000000e+00 1.0000000000e+01 
1.0000000000e+00 0.0000000000e+00 1.0000000000e+01 
-1.0000000000e+00 1.0000000000e+00 1.0000000000e+01 
0.0000000000e+00 1.0000000000e+00 1.0000000000e+01 
1.0000000000e+00 1.0000000000e+00 1.0000000000e+01 
</DataArray>
</Points>
<Cells>
<DataArray type="Int64" Name="connectivity" format="ascii">
0 1 4 3 9 10 13 12 
1 2 5 4 10 11 14 13 
3 4 7 6 12 13 16 15 
4 5 8 7 13 14 17 16 
9 10 13 12 18 19 22 21 
10 11 14 13 19 20 23 22 
12 13 16 15 21 22 25 24 
13 14 17 16 22 23 26 25 
18 19 22 21 27 28 31 30 
19 20 23 22 28 29 32 31 
21 22 25 24 30 31 34 33 
22 23 26 25 31 32 35 34 
27 28 31 30 36 37 40 39 
28 29 32 31 37 38 41 40 
30 31 34 33 39 40 43 42 
31 32 35 34 40 41 44 43 
36 37 40 39 45 46 49 48 
37 38 41 40 46 47 50 49 
39 40 43 42 48 49 52 51 
40 41 44 43 49 50 53 52 
45 46 49 48 54 55 58 57 
46 47 50 49 55 56 59 58 
48 49 52 51 57 58 61 60 
49 50 53 52 58 59 62 61 
</DataArray>
<DataArray type="Int64" Name="offsets" format="ascii">
8 16 24 32 40 48 56 64 72 80 88 96 104 112 120 128 136 144 152 160 168 176 184 192 
</DataArray>
<DataArray type="Int64" Name="types" format="ascii">
12 12 12 12 12 12 12 12 12 12 12 12 12 12 12 12 12 12 12 12 12 12 12 12 
</DataArray>
</Cells>
</Piece>
</UnstructuredGrid>
</VTKFile>
