<VTKFile type="UnstructuredGrid" version="1.0" byte_order="LittleEndian">
<UnstructuredGrid>
<Piece NumberOfPoints="63" NumberOfCells="24">
<PointData>
<DataArray type="Int32" Name="Node Tag" format="ascii">
1 2 3 4 5 6 7 8 9 10 11 12 13 14 15 16 17 18 19 20 21 22 23 24 25 26 27 28 29 30 31 32 33 34 35 36 37 38 39 40 41 42 43 44 45 46 47 48 49 50 51 52 53 54 55 56 57 58 59 60 61 62 63 
</DataArray>
<DataArray type="Float32" Name="Disp" NumberOfComponents="3" format="ascii">
0.0000000000e+00 0.0000000000e+00 0.0000000000e+00 
0.0000000000e+00 0.0000000000e+00 0.0000000000e+00 
0.0000000000e+00 0.0000000000e+00 0.0000000000e+00 
0.0000000000e+00 0.0000000000e+00 0.0000000000e+00 
0.0000000000e+00 0.0000000000e+00 0.0000000000e+00 
0.0000000000e+00 0.0000000000e+00 0.0000000000e+00 
0.0000000000e+00 0.0000000000e+00 0.0000000000e+00 
0.0000000000e+00 0.0000000000e+00 0.0000000000e+00 
0.0000000000e+00 0.0000000000e+00 0.0000000000e+00 
-7.2156609424e-04 -7.2156609424e-04 -7.9824373899e-04 
-5.9775911132e-04 -6.0287769858e-04 -2.8259458482e-04 
-5.0911751173e-04 -4.7035755707e-04 1.2657428168e-04 
-6.0287769857e-04 -5.9775911132e-04 -2.8259458482e-04 
-5.9165890612e-04 -5.9165890612e-04 -4.8215303035e-05 
-6.0227312680e-04 -5.0180080616e-04 3.6241072099e-04 
-4.7035755707e-04 -5.0911751173e-04 1.2657428168e-04 
-5.0180080616e-04 -6.0227312680e-04 3.6241072099e-04 
-5.6473433237e-04 -5.6473433237e-04 6.1537940031e-04 
-1.0648564927e-03 -1.0648564927e-03 -5.3466102797e-04 
-1.1657525922e-03 -1.1032656074e-03 -3.1199261908e-04 
-1.2383218288e-03 -1.0862870625e-03 4.7089098331e-05 
-1.1032656074e-03 -1.1657525922e-03 -3.1199261908e-04 
-1.0840849065e-03 -1.0840849065e-03 5.4310171456e-05 
-1.0556745213e-03 -1.0699317062e-03 2.1411256796e-04 
-1.0862870624e-03 -1.2383218288e-03 4.7089098334e-05 
-1.0699317062e-03 -1.0556745213e-03 2.1411256796e-04 
-1.0163276657e-03 -1.0163276657e-03 3.8041656751e-04 
-1.2097697544e-03 -1.2097697544e-03 -4.9332315052e-04 
-1.2251206734e-03 -1.2050727278e-03 -1.6382084176e-04 
-1.2270442263e-03 -1.2487788644e-03 6.4457349888e-05 
-1.2050727278e-03 -1.2251206734e-03 -1.6382084176e-04 
-1.2143673676e-03 -1.2143673676e-03 -7.8060660918e-05 
-1.2248672999e-03 -1.2629324036e-03 2.1794345143e-04 
-1.2487788644e-03 -1.2270442263e-03 6.4457349891e-05 
-1.2629324036e-03 -1.2248672999e-03 2.1794345144e-04 
-1.2341901955e-03 -1.2341901955e-03 3.2908817394e-04 
-1.8388597753e-03 -1.8388597753e-03 -7.2538924931e-04 
-1.7320600241e-03 -1.7110010426e-03 -3.5754735290e-04 
-1.6395292745e-03 -1.6291488025e-03 6.5286220191e-06 
-1.7110010426e-03 -1.7320600241e-03 -3.5754735289e-04 
-1.7144073201e-03 -1.7144073201e-03 4.9202027770e-05 
-1.6773902304e-03 -1.6143186992e-03 2.8500476182e-04 
-1.6291488025e-03 -1.6395292745e-03 6.5286220234e-06 
-1.6143186992e-03 -1.6773902304e-03 2.8500476183e-04 
-1.8427190129e-03 -1.8427190130e-03 6.8000967593e-04 
-2.3856912565e-03 -2.3856912565e-03 -3.7634648919e-04 
-2.5613088525e-03 -2.4501988017e-03 -3.5859184109e-04 
-2.7103964338e-03 -2.5723122588e-03 -3.3785539143e-04 
-2.4501988017e-03 -2.5613088525e-03 -3.5859184109e-04 
-2.3872264846e-03 -2.3872264846e-03 7.2731490617e-06 
-2.4407145695e-03 -2.5389661153e-03 4.1030076240e-04 
-2.5723122588e-03 -2.7103964338e-03 -3.3785539143e-04 
-2.5389661153e-03 -2.4407145696e-03 4.1030076240e-04 
-2.3611865812e-03 -2.3611865812e-03 8.4103949571e-04 
-2.8751079257e-03 -2.8751079257e-03 5.8922533140e-05 
-2.9200039378e-03 -3.0623255891e-03 -2.8951069116e-04 
-2.9142140256e-03 -3.1133656269e-03 -3.1588066142e-04 
-3.0623255890e-03 -2.9200039379e-03 -2.8951069116e-04 
-3.1030768470e-03 -3.1030768470e-03 -2.1701444697e-05 
-3.1493438868e-03 -3.1741680058e-03 3.7295732558e-04 
-3.1133656269e-03 -2.9142140256e-03 -3.1588066142e-04 
-3.1741680058e-03 -3.1493438869e-03 3.7295732558e-04 
-3.2439756742e-03 -3.2439756742e-03 9.3328867828e-04 

</DataArray>
</PointData>
<CellData>
<DataArray type="Int32" Name="Element Tag" format="ascii">
1 2 3 4 5 6 7 8 9 10 11 12 13 14 15 16 17 18 19 20 21 22 23 24 
</DataArray>
<DataArray type="Int32" Name="Element Class" format="ascii">
56 56 56 56 56 56 56 56 56 56 56 56 56 56 56 56 56 56 56 56 56 56 56 56 
</DataArray>
</CellData>
<Points>
<DataArray type="Float32" Name="Points" NumberOfComponents="3" format="ascii">
-1.0000000000e+00 -1.0000000000e+00 0.0000000000e+00 
0.0000000000e+00 -1.0000000000e+00 0.0000000000e+00 
1.0000000000e+00 -1.0000000000e+00 0.0000000000e+00 
-1.0000000000e+00 0.0000000000e+00 0.0000000000e+00 
0.0000000000e+00 0.0000000000e+00 0.0000000000e+00 
1.0000000000e+00 0.0000000000e+00 0.0000000000e+00 
-1.0000000000e+00 1.0000000000e+00 0.0000000000e+00 
0.0000000000e+00 1.0000000000e+00 0.0000000000e+00 
1.0000000000e+00 1.0000000000e+00 0.0000000000e+00 
-1.0000000000e+00 -1.0000000000e+00 1.6666666667e+00 
0.0000000000e+00 -1.0000000000e+00 1.6666666667e+00 
1.0000000000e+00 -1.0000000000e+00 1.6666666667e+00 
-1.0000000000e+00 0.0000000000e+00 1.6666666667e+00 
0.0000000000e+00 0.0000000000e+00 1.6666666667e+00 
1.0000000000e+00 0.0000000000e+00 1.6666666667e+00 
-1.0000000000e+00 1.0000000000e+00 1.6666666667e+00 
0.0000000000e+00 1.0000000000e+00 1.6666666667e+00 
1.0000000000e+00 1.0000000000e+00 1.6666666667e+00 
-1.0000000000e+00 -1.0000000000e+00 3.3333333333e+00 
0.0000000000e+00 -1.0000000000e+00 3.3333333333e+00 
1.0000000000e+00 -1.0000000000e+00 3.3333333333e+00 
-1.0000000000e+00 0.0000000000e+00 3.3333333333e+00 
0.0000000000e+00 0.0000000000e+00 3.3333333333e+00 
1.0000000000e+00 0.0000000000e+00 3.3333333333e+00 
-1.0000000000e+00 1.0000000000e+00 3.3333333333e+00 
0.0000000000e+00 1.0000000000e+00 3.3333333333e+00 
1.0000000000e+00 1.0000000000e+00 3.3333333333e+00 
-1.0000000000e+00 -1.0000000000e+00 5.0000000000e+00 
0.0000000000e+00 -1.0000000000e+00 5.0000000000e+00 
1.0000000000e+00 -1.0000000000e+00 5.0000000000e+00 
-1.0000000000e+00 0.0000000000e+00 5.0000000000e+00 
0.0000000000e+00 0.0000000000e+00 5.0000000000e+00 
1.0000000000e+00 0.0000000000e+00 5.0000000000e+00 
-1.0000000000e+00 1.0000000000e+00 5.0000000000e+00 
0.0000000000e+00 1.0000000000e+00 5.0000000000e+00 
1.0000000000e+00 1.0000000000e+00 5.0000000000e+00 
-1.0000000000e+00 -1.0000000000e+00 6.6666666667e+00 
0.0000000000e+00 -1.0000000000e+00 6.6666666667e+00 
1.0000000000e+00 -1.0000000000e+00 6.6666666667e+00 
-1.0000000000e+00 0.0000000000e+00 6.6666666667e+00 
0.0000000000e+00 0.0000000000e+00 6.6666666667e+00 
1.0000000000e+00 0.0000000000e+00 6.6666666667e+00 
-1.0000000000e+00 1.0000000000e+00 6.6666666667e+00 
0.0000000000e+00 1.0000000000e+00 6.6666666667e+00 
1.0000000000e+00 1.0000000000e+00 6.6666666667e+00 
-1.0000000000e+00 -1.0000000000e+00 8.3333333333e+00 
0.0000000000e+00 -1.0000000000e+00 8.3333333333e+00 
1.0000000000e+00 -1.0000000000e+00 8.3333333333e+00 
-1.0000000000e+00 0.0000000000e+00 8.3333333333e+00 
0.0000000000e+00 0.0000000000e+00 8.3333333333e+00 
1.0000000000e+00 0.0000000000e+00 8.3333333333e+00 
-1.0000000000e+00 1.0000000000e+00 8.3333333333e+00 
0.0000000000e+00 1.0000000000e+00 8.3333333333e+00 
1.0000000000e+00 1.0000000000e+00 8.3333333333e+00 
-1.0000000000e+00 -1.0000000000e+00 1.0000000000e+01 
0.0000000000e+00 -1.0000000000e+00 1.0000000000e+01 
1.0000000000e+00 -1.0000000000e+00 1.0000000000e+01 
-1.0000000000e+00 0.0000000000e+00 1.0000000000e+01 
0.0000000000e+00 0.0000000000e+00 1.0000000000e+01 
1.0000000000e+00 0.0000000000e+00 1.0000000000e+01 
-1.0000000000e+00 1.0000000000e+00 1.0000000000e+01 
0.0000000000e+00 1.0000000000e+00 1.0000000000e+01 
1.0000000000e+00 1.0000000000e+00 1.0000000000e+01 
</DataArray>
</Points>
<Cells>
<DataArray type="Int64" Name="connectivity" format="ascii">
0 1 4 3 9 10 13 12 
1 2 5 4 10 11 14 13 
3 4 7 6 12 13 16 15 
4 5 8 7 13 14 17 16 
9 10 13 12 18 19 22 21 
10 11 14 13 19 20 23 22 
12 13 16 15 21 22 25 24 
13 14 17 16 22 23 26 25 
18 19 22 21 27 28 31 30 
19 20 23 22 28 29 32 31 
21 22 25 24 30 31 34 33 
22 23 26 25 31 32 35 34 
27 28 31 30 36 37 40 39 
28 29 32 31 37 38 41 40 
30 31 34 33 39 40 43 42 
31 32 35 34 40 41 44 43 
36 37 40 39 45 46 49 48 
37 38 41 40 46 47 50 49 
39 40 43 42 48 49 52 51 
40 41 44 43 49 50 53 52 
45 46 49 48 54 55 58 57 
46 47 50 49 55 56 59 58 
48 49 52 51 57 58 61 60 
49 50 53 52 58 59 62 61 
</DataArray>
<DataArray type="Int64" Name="offsets" format="ascii">
8 16 24 32 40 48 56 64 72 80 88 96 104 112 120 128 136 144 152 160 168 176 184 192 
</DataArray>
<DataArray type="Int64" Name="types" format="ascii">
12 12 12 12 12 12 12 12 12 12 12 12 12 12 12 12 12 12 12 12 12 12 12 12 
</DataArray>
</Cells>
</Piece>
</UnstructuredGrid>
</VTKFile>
