<VTKFile type="UnstructuredGrid" version="1.0" byte_order="LittleEndian">
<UnstructuredGrid>
<Piece NumberOfPoints="63" NumberOfCells="24">
<PointData>
<DataArray type="Int32" Name="Node Tag" format="ascii">
1 2 3 4 5 6 7 8 9 10 11 12 13 14 15 16 17 18 19 20 21 22 23 24 25 26 27 28 29 30 31 32 33 34 35 36 37 38 39 40 41 42 43 44 45 46 47 48 49 50 51 52 53 54 55 56 57 58 59 60 61 62 63 
</DataArray>
<DataArray type="Float32" Name="Disp" NumberOfComponents="3" format="ascii">
0.0000000000e+00 0.0000000000e+00 0.0000000000e+00 
0.0000000000e+00 0.0000000000e+00 0.0000000000e+00 
0.0000000000e+00 0.0000000000e+00 0.0000000000e+00 
0.0000000000e+00 0.0000000000e+00 0.0000000000e+00 
0.0000000000e+00 0.0000000000e+00 0.0000000000e+00 
0.0000000000e+00 0.0000000000e+00 0.0000000000e+00 
0.0000000000e+00 0.0000000000e+00 0.0000000000e+00 
0.0000000000e+00 0.0000000000e+00 0.0000000000e+00 
0.0000000000e+00 0.0000000000e+00 0.0000000000e+00 
-4.0915043344e-05 -4.0915043342e-05 2.1796142884e-04 
-1.1229877218e-04 -6.3702404287e-05 1.7163592119e-04 
-1.5927281300e-04 -9.6014935774e-05 4.3720151029e-05 
-6.3702404289e-05 -1.1229877217e-04 1.7163592119e-04 
-9.0746661135e-05 -9.0746661134e-05 5.6909186952e-05 
-7.7783650095e-05 -5.9381845592e-05 -1.9811340419e-04 
-9.6014935776e-05 -1.5927281299e-04 4.3720151026e-05 
-5.9381845594e-05 -7.7783650093e-05 -1.9811340419e-04 
4.8128133936e-05 4.8128133938e-05 -3.7839825558e-04 
6.6524817077e-04 6.6524817078e-04 8.7909126541e-04 
5.5659286713e-04 6.2669093779e-04 5.7079079462e-04 
4.6358098510e-04 4.7183071260e-04 1.4561737214e-04 
6.2669093778e-04 5.5659286713e-04 5.7079079462e-04 
5.7028695359e-04 5.7028695359e-04 -3.2398103065e-05 
5.3074253073e-04 5.4824027526e-04 -4.6497793619e-04 
4.7183071259e-04 4.6358098511e-04 1.4561737213e-04 
5.4824027525e-04 5.3074253074e-04 -4.6497793620e-04 
5.8961482612e-04 5.8961482613e-04 -1.0305806807e-03 
1.9065148400e-03 1.9065148400e-03 1.5283444411e-03 
1.8564028291e-03 1.8784235112e-03 7.1126630503e-04 
1.8006838695e-03 1.7415006107e-03 4.5233249012e-05 
1.8784235111e-03 1.8564028291e-03 7.1126630502e-04 
1.9261746251e-03 1.9261746252e-03 4.5445152437e-05 
1.9227489961e-03 1.9002923751e-03 -6.8619494955e-04 
1.7415006107e-03 1.8006838695e-03 4.5233249004e-05 
1.9002923750e-03 1.9227489961e-03 -6.8619494955e-04 
2.0433853216e-03 2.0433853216e-03 -1.4234063029e-03 
3.1299760049e-03 3.1299760050e-03 1.2506960793e-03 
3.1374076257e-03 3.0890957350e-03 5.3074580928e-04 
3.1978708388e-03 3.3095780767e-03 -1.6010437160e-04 
3.0890957350e-03 3.1374076257e-03 5.3074580927e-04 
3.0738778391e-03 3.0738778392e-03 -7.7793286738e-05 
3.0594310939e-03 3.1495945921e-03 -6.2431671289e-04 
3.3095780767e-03 3.1978708389e-03 -1.6010437161e-04 
3.1495945920e-03 3.0594310939e-03 -6.2431671289e-04 
3.1262749611e-03 3.1262749611e-03 -1.2978193944e-03 
3.7801770974e-03 3.7801770974e-03 9.2352909531e-04 
3.8720920774e-03 3.9230496643e-03 5.5350812113e-04 
3.8892291517e-03 3.9107987418e-03 -3.8652753905e-05 
3.9230496643e-03 3.8720920775e-03 5.5350812112e-04 
3.8245121906e-03 3.8245121907e-03 1.0062545711e-04 
3.8299838775e-03 4.0046399595e-03 -5.6942784833e-04 
3.9107987418e-03 3.8892291517e-03 -3.8652753913e-05 
4.0046399595e-03 3.8299838775e-03 -5.6942784833e-04 
3.7915871618e-03 3.7915871618e-03 -8.7426248549e-04 
4.6559435416e-03 4.6559435417e-03 5.8967821501e-04 
4.7229347023e-03 4.5894819691e-03 5.5892907072e-04 
4.7389844445e-03 4.5367408722e-03 -8.7838072604e-05 
4.5894819691e-03 4.7229347023e-03 5.5892907072e-04 
4.7185922850e-03 4.7185922850e-03 6.4607232633e-05 
4.8046897591e-03 4.5308826506e-03 -5.3617494192e-04 
4.5367408722e-03 4.7389844445e-03 -8.7838072612e-05 
4.5308826506e-03 4.8046897591e-03 -5.3617494193e-04 
4.6791090841e-03 4.6791090842e-03 -8.6865342121e-04 

</DataArray>
</PointData>
<CellData>
<DataArray type="Int32" Name="Element Tag" format="ascii">
1 2 3 4 5 6 7 8 9 10 11 12 13 14 15 16 17 18 19 20 21 22 23 24 
</DataArray>
<DataArray type="Int32" Name="Element Class" format="ascii">
56 56 56 56 56 56 56 56 56 56 56 56 56 56 56 56 56 56 56 56 56 56 56 56 
</DataArray>
</CellData>
<Points>
<DataArray type="Float32" Name="Points" NumberOfComponents="3" format="ascii">
-1.0000000000e+00 -1.0000000000e+00 0.0000000000e+00 
0.0000000000e+00 -1.0000000000e+00 0.0000000000e+00 
1.0000000000e+00 -1.0000000000e+00 0.0000000000e+00 
-1.0000000000e+00 0.0000000000e+00 0.0000000000e+00 
0.0000000000e+00 0.0000000000e+00 0.0000000000e+00 
1.0000000000e+00 0.0000000000e+00 0.0000000000e+00 
-1.0000000000e+00 1.0000000000e+00 0.0000000000e+00 
0.0000000000e+00 1.0000000000e+00 0.0000000000e+00 
1.0000000000e+00 1.0000000000e+00 0.0000000000e+00 
-1.0000000000e+00 -1.0000000000e+00 1.6666666667e+00 
0.0000000000e+00 -1.0000000000e+00 1.6666666667e+00 
1.0000000000e+00 -1.0000000000e+00 1.6666666667e+00 
-1.0000000000e+00 0.0000000000e+00 1.6666666667e+00 
0.0000000000e+00 0.0000000000e+00 1.6666666667e+00 
1.0000000000e+00 0.0000000000e+00 1.6666666667e+00 
-1.0000000000e+00 1.0000000000e+00 1.6666666667e+00 
0.0000000000e+00 1.0000000000e+00 1.6666666667e+00 
1.0000000000e+00 1.0000000000e+00 1.6666666667e+00 
-1.0000000000e+00 -1.0000000000e+00 3.3333333333e+00 
0.0000000000e+00 -1.0000000000e+00 3.3333333333e+00 
1.0000000000e+00 -1.0000000000e+00 3.3333333333e+00 
-1.0000000000e+00 0.0000000000e+00 3.3333333333e+00 
0.0000000000e+00 0.0000000000e+00 3.3333333333e+00 
1.0000000000e+00 0.0000000000e+00 3.3333333333e+00 
-1.0000000000e+00 1.0000000000e+00 3.3333333333e+00 
0.0000000000e+00 1.0000000000e+00 3.3333333333e+00 
1.0000000000e+00 1.0000000000e+00 3.3333333333e+00 
-1.0000000000e+00 -1.0000000000e+00 5.0000000000e+00 
0.0000000000e+00 -1.0000000000e+00 5.0000000000e+00 
1.0000000000e+00 -1.0000000000e+00 5.0000000000e+00 
-1.0000000000e+00 0.0000000000e+00 5.0000000000e+00 
0.0000000000e+00 0.0000000000e+00 5.0000000000e+00 
1.0000000000e+00 0.0000000000e+00 5.0000000000e+00 
-1.0000000000e+00 1.0000000000e+00 5.0000000000e+00 
0.0000000000e+00 1.0000000000e+00 5.0000000000e+00 
1.0000000000e+00 1.0000000000e+00 5.0000000000e+00 
-1.0000000000e+00 -1.0000000000e+00 6.6666666667e+00 
0.0000000000e+00 -1.0000000000e+00 6.6666666667e+00 
1.0000000000e+00 -1.0000000000e+00 6.6666666667e+00 
-1.0000000000e+00 0.0000000000e+00 6.6666666667e+00 
0.0000000000e+00 0.0000000000e+00 6.6666666667e+00 
1.0000000000e+00 0.0000000000e+00 6.6666666667e+00 
-1.0000000000e+00 1.0000000000e+00 6.6666666667e+00 
0.0000000000e+00 1.0000000000e+00 6.6666666667e+00 
1.0000000000e+00 1.0000000000e+00 6.6666666667e+00 
-1.0000000000e+00 -1.0000000000e+00 8.3333333333e+00 
0.0000000000e+00 -1.0000000000e+00 8.3333333333e+00 
1.0000000000e+00 -1.0000000000e+00 8.3333333333e+00 
-1.0000000000e+00 0.0000000000e+00 8.3333333333e+00 
0.0000000000e+00 0.0000000000e+00 8.3333333333e+00 
1.0000000000e+00 0.0000000000e+00 8.3333333333e+00 
-1.0000000000e+00 1.0000000000e+00 8.3333333333e+00 
0.0000000000e+00 1.0000000000e+00 8.3333333333e+00 
1.0000000000e+00 1.0000000000e+00 8.3333333333e+00 
-1.0000000000e+00 -1.0000000000e+00 1.0000000000e+01 
0.0000000000e+00 -1.0000000000e+00 1.0000000000e+01 
1.0000000000e+00 -1.0000000000e+00 1.0000000000e+01 
-1.0000000000e+00 0.0000000000e+00 1.0000000000e+01 
0.0000000000e+00 0.0000000000e+00 1.0000000000e+01 
1.0000000000e+00 0.0000000000e+00 1.0000000000e+01 
-1.0000000000e+00 1.0000000000e+00 1.0000000000e+01 
0.0000000000e+00 1.0000000000e+00 1.0000000000e+01 
1.0000000000e+00 1.0000000000e+00 1.0000000000e+01 
</DataArray>
</Points>
<Cells>
<DataArray type="Int64" Name="connectivity" format="ascii">
0 1 4 3 9 10 13 12 
1 2 5 4 10 11 14 13 
3 4 7 6 12 13 16 15 
4 5 8 7 13 14 17 16 
9 10 13 12 18 19 22 21 
10 11 14 13 19 20 23 22 
12 13 16 15 21 22 25 24 
13 14 17 16 22 23 26 25 
18 19 22 21 27 28 31 30 
19 20 23 22 28 29 32 31 
21 22 25 24 30 31 34 33 
22 23 26 25 31 32 35 34 
27 28 31 30 36 37 40 39 
28 29 32 31 37 38 41 40 
30 31 34 33 39 40 43 42 
31 32 35 34 40 41 44 43 
36 37 40 39 45 46 49 48 
37 38 41 40 46 47 50 49 
39 40 43 42 48 49 52 51 
40 41 44 43 49 50 53 52 
45 46 49 48 54 55 58 57 
46 47 50 49 55 56 59 58 
48 49 52 51 57 58 61 60 
49 50 53 52 58 59 62 61 
</DataArray>
<DataArray type="Int64" Name="offsets" format="ascii">
8 16 24 32 40 48 56 64 72 80 88 96 104 112 120 128 136 144 152 160 168 176 184 192 
</DataArray>
<DataArray type="Int64" Name="types" format="ascii">
12 12 12 12 12 12 12 12 12 12 12 12 12 12 12 12 12 12 12 12 12 12 12 12 
</DataArray>
</Cells>
</Piece>
</UnstructuredGrid>
</VTKFile>
