<VTKFile type="UnstructuredGrid" version="1.0" byte_order="LittleEndian">
<UnstructuredGrid>
<Piece NumberOfPoints="63" NumberOfCells="24">
<PointData>
<DataArray type="Int32" Name="Node Tag" format="ascii">
1 2 3 4 5 6 7 8 9 10 11 12 13 14 15 16 17 18 19 20 21 22 23 24 25 26 27 28 29 30 31 32 33 34 35 36 37 38 39 40 41 42 43 44 45 46 47 48 49 50 51 52 53 54 55 56 57 58 59 60 61 62 63 
</DataArray>
<DataArray type="Float32" Name="Disp" NumberOfComponents="3" format="ascii">
0.0000000000e+00 0.0000000000e+00 0.0000000000e+00 
0.0000000000e+00 0.0000000000e+00 0.0000000000e+00 
0.0000000000e+00 0.0000000000e+00 0.0000000000e+00 
0.0000000000e+00 0.0000000000e+00 0.0000000000e+00 
0.0000000000e+00 0.0000000000e+00 0.0000000000e+00 
0.0000000000e+00 0.0000000000e+00 0.0000000000e+00 
0.0000000000e+00 0.0000000000e+00 0.0000000000e+00 
0.0000000000e+00 0.0000000000e+00 0.0000000000e+00 
0.0000000000e+00 0.0000000000e+00 0.0000000000e+00 
1.8454499465e-04 1.8454499465e-04 1.6512766502e-04 
1.2635311383e-04 1.3416642679e-04 7.8713432071e-05 
6.4362541074e-05 8.8769647039e-05 -4.6149471780e-05 
1.3416642679e-04 1.2635311383e-04 7.8713432070e-05 
1.2614477204e-04 1.2614477204e-04 2.5803546993e-05 
1.2396430425e-04 1.2346083868e-04 -1.9049542873e-04 
8.8769647038e-05 6.4362541075e-05 -4.6149471782e-05 
1.2346083868e-04 1.2396430425e-04 -1.9049542873e-04 
1.9065136848e-04 1.9065136848e-04 -2.8505981221e-04 
4.9006309598e-04 4.9006309598e-04 2.1044567773e-04 
4.6857313703e-04 4.7542181741e-04 2.2153829747e-04 
4.2353352234e-04 3.7766030686e-04 1.0273141812e-04 
4.7542181741e-04 4.6857313704e-04 2.2153829747e-04 
4.3157213384e-04 4.3157213385e-04 -4.5211546105e-05 
3.6880747650e-04 4.1010718459e-04 -1.1466375554e-04 
3.7766030686e-04 4.2353352234e-04 1.0273141812e-04 
4.1010718458e-04 3.6880747651e-04 -1.1466375554e-04 
3.7829363427e-04 3.7829363428e-04 -2.9923528456e-04 
8.0426813697e-04 8.0426813697e-04 5.5940564369e-04 
7.5463826639e-04 7.8214925739e-04 1.9991346283e-04 
7.0295214748e-04 6.6760597318e-04 1.0598965929e-05 
7.8214925739e-04 7.5463826639e-04 1.9991346283e-04 
8.2661679560e-04 8.2661679561e-04 7.1832513663e-05 
8.3232511242e-04 8.1834280261e-04 -1.7680280222e-04 
6.6760597317e-04 7.0295214748e-04 1.0598965925e-05 
8.1834280260e-04 8.3232511243e-04 -1.7680280223e-04 
9.3963082661e-04 9.3963082662e-04 -3.8360047778e-04 
1.2989402766e-03 1.2989402766e-03 8.5124925579e-04 
1.1802199176e-03 1.1797410725e-03 3.3599358762e-04 
1.1614745510e-03 1.2313472147e-03 -1.3773844802e-04 
1.1797410725e-03 1.1802199176e-03 3.3599358762e-04 
1.1303496408e-03 1.1303496408e-03 -8.7309868068e-05 
1.1407698276e-03 1.1251072298e-03 -4.0180899354e-04 
1.2313472147e-03 1.1614745510e-03 -1.3773844803e-04 
1.1251072298e-03 1.1407698276e-03 -4.0180899354e-04 
1.2751659191e-03 1.2751659191e-03 -8.6762349984e-04 
2.0210793989e-03 2.0210793989e-03 1.4542684956e-03 
2.0599531509e-03 2.0950578981e-03 9.3120640628e-04 
2.0949673730e-03 2.0485148132e-03 1.9132744284e-04 
2.0950578981e-03 2.0599531509e-03 9.3120640628e-04 
1.9523627146e-03 1.9523627146e-03 9.9528216201e-05 
2.0068901583e-03 2.1016359124e-03 -9.2895065598e-04 
2.0485148132e-03 2.0949673730e-03 1.9132744283e-04 
2.1016359124e-03 2.0068901583e-03 -9.2895065598e-04 
1.9817769278e-03 1.9817769278e-03 -1.7670086476e-03 
3.8710272145e-03 3.8710272145e-03 1.6223044702e-03 
3.8965320411e-03 3.9565196881e-03 1.2454543009e-03 
3.8949672611e-03 3.9314920276e-03 2.1502222583e-04 
3.9565196881e-03 3.8965320411e-03 1.2454543009e-03 
4.0661136368e-03 4.0661136368e-03 8.8661779773e-05 
4.1854777021e-03 3.9865790523e-03 -1.2392827508e-03 
3.9314920276e-03 3.8949672612e-03 2.1502222582e-04 
3.9865790523e-03 4.1854777021e-03 -1.2392827508e-03 
4.2098713491e-03 4.2098713492e-03 -2.5615133141e-03 

</DataArray>
</PointData>
<CellData>
<DataArray type="Int32" Name="Element Tag" format="ascii">
1 2 3 4 5 6 7 8 9 10 11 12 13 14 15 16 17 18 19 20 21 22 23 24 
</DataArray>
<DataArray type="Int32" Name="Element Class" format="ascii">
56 56 56 56 56 56 56 56 56 56 56 56 56 56 56 56 56 56 56 56 56 56 56 56 
</DataArray>
</CellData>
<Points>
<DataArray type="Float32" Name="Points" NumberOfComponents="3" format="ascii">
-1.0000000000e+00 -1.0000000000e+00 0.0000000000e+00 
0.0000000000e+00 -1.0000000000e+00 0.0000000000e+00 
1.0000000000e+00 -1.0000000000e+00 0.0000000000e+00 
-1.0000000000e+00 0.0000000000e+00 0.0000000000e+00 
0.0000000000e+00 0.0000000000e+00 0.0000000000e+00 
1.0000000000e+00 0.0000000000e+00 0.0000000000e+00 
-1.0000000000e+00 1.0000000000e+00 0.0000000000e+00 
0.0000000000e+00 1.0000000000e+00 0.0000000000e+00 
1.0000000000e+00 1.0000000000e+00 0.0000000000e+00 
-1.0000000000e+00 -1.0000000000e+00 1.6666666667e+00 
0.0000000000e+00 -1.0000000000e+00 1.6666666667e+00 
1.0000000000e+00 -1.0000000000e+00 1.6666666667e+00 
-1.0000000000e+00 0.0000000000e+00 1.6666666667e+00 
0.0000000000e+00 0.0000000000e+00 1.6666666667e+00 
1.0000000000e+00 0.0000000000e+00 1.6666666667e+00 
-1.0000000000e+00 1.0000000000e+00 1.6666666667e+00 
0.0000000000e+00 1.0000000000e+00 1.6666666667e+00 
1.0000000000e+00 1.0000000000e+00 1.6666666667e+00 
-1.0000000000e+00 -1.0000000000e+00 3.3333333333e+00 
0.0000000000e+00 -1.0000000000e+00 3.3333333333e+00 
1.0000000000e+00 -1.0000000000e+00 3.3333333333e+00 
-1.0000000000e+00 0.0000000000e+00 3.3333333333e+00 
0.0000000000e+00 0.0000000000e+00 3.3333333333e+00 
1.0000000000e+00 0.0000000000e+00 3.3333333333e+00 
-1.0000000000e+00 1.0000000000e+00 3.3333333333e+00 
0.0000000000e+00 1.0000000000e+00 3.3333333333e+00 
1.0000000000e+00 1.0000000000e+00 3.3333333333e+00 
-1.0000000000e+00 -1.0000000000e+00 5.0000000000e+00 
0.0000000000e+00 -1.0000000000e+00 5.0000000000e+00 
1.0000000000e+00 -1.0000000000e+00 5.0000000000e+00 
-1.0000000000e+00 0.0000000000e+00 5.0000000000e+00 
0.0000000000e+00 0.0000000000e+00 5.0000000000e+00 
1.0000000000e+00 0.0000000000e+00 5.0000000000e+00 
-1.0000000000e+00 1.0000000000e+00 5.0000000000e+00 
0.0000000000e+00 1.0000000000e+00 5.0000000000e+00 
1.0000000000e+00 1.0000000000e+00 5.0000000000e+00 
-1.0000000000e+00 -1.0000000000e+00 6.6666666667e+00 
0.0000000000e+00 -1.0000000000e+00 6.6666666667e+00 
1.0000000000e+00 -1.0000000000e+00 6.6666666667e+00 
-1.0000000000e+00 0.0000000000e+00 6.6666666667e+00 
0.0000000000e+00 0.0000000000e+00 6.6666666667e+00 
1.0000000000e+00 0.0000000000e+00 6.6666666667e+00 
-1.0000000000e+00 1.0000000000e+00 6.6666666667e+00 
0.0000000000e+00 1.0000000000e+00 6.6666666667e+00 
1.0000000000e+00 1.0000000000e+00 6.6666666667e+00 
-1.0000000000e+00 -1.0000000000e+00 8.3333333333e+00 
0.0000000000e+00 -1.0000000000e+00 8.3333333333e+00 
1.0000000000e+00 -1.0000000000e+00 8.3333333333e+00 
-1.0000000000e+00 0.0000000000e+00 8.3333333333e+00 
0.0000000000e+00 0.0000000000e+00 8.3333333333e+00 
1.0000000000e+00 0.0000000000e+00 8.3333333333e+00 
-1.0000000000e+00 1.0000000000e+00 8.3333333333e+00 
0.0000000000e+00 1.0000000000e+00 8.3333333333e+00 
1.0000000000e+00 1.0000000000e+00 8.3333333333e+00 
-1.0000000000e+00 -1.0000000000e+00 1.0000000000e+01 
0.0000000000e+00 -1.0000000000e+00 1.0000000000e+01 
1.0000000000e+00 -1.0000000000e+00 1.0000000000e+01 
-1.0000000000e+00 0.0000000000e+00 1.0000000000e+01 
0.0000000000e+00 0.0000000000e+00 1.0000000000e+01 
1.0000000000e+00 0.0000000000e+00 1.0000000000e+01 
-1.0000000000e+00 1.0000000000e+00 1.0000000000e+01 
0.0000000000e+00 1.0000000000e+00 1.0000000000e+01 
1.0000000000e+00 1.0000000000e+00 1.0000000000e+01 
</DataArray>
</Points>
<Cells>
<DataArray type="Int64" Name="connectivity" format="ascii">
0 1 4 3 9 10 13 12 
1 2 5 4 10 11 14 13 
3 4 7 6 12 13 16 15 
4 5 8 7 13 14 17 16 
9 10 13 12 18 19 22 21 
10 11 14 13 19 20 23 22 
12 13 16 15 21 22 25 24 
13 14 17 16 22 23 26 25 
18 19 22 21 27 28 31 30 
19 20 23 22 28 29 32 31 
21 22 25 24 30 31 34 33 
22 23 26 25 31 32 35 34 
27 28 31 30 36 37 40 39 
28 29 32 31 37 38 41 40 
30 31 34 33 39 40 43 42 
31 32 35 34 40 41 44 43 
36 37 40 39 45 46 49 48 
37 38 41 40 46 47 50 49 
39 40 43 42 48 49 52 51 
40 41 44 43 49 50 53 52 
45 46 49 48 54 55 58 57 
46 47 50 49 55 56 59 58 
48 49 52 51 57 58 61 60 
49 50 53 52 58 59 62 61 
</DataArray>
<DataArray type="Int64" Name="offsets" format="ascii">
8 16 24 32 40 48 56 64 72 80 88 96 104 112 120 128 136 144 152 160 168 176 184 192 
</DataArray>
<DataArray type="Int64" Name="types" format="ascii">
12 12 12 12 12 12 12 12 12 12 12 12 12 12 12 12 12 12 12 12 12 12 12 12 
</DataArray>
</Cells>
</Piece>
</UnstructuredGrid>
</VTKFile>
