<VTKFile type="UnstructuredGrid" version="1.0" byte_order="LittleEndian">
<UnstructuredGrid>
<Piece NumberOfPoints="63" NumberOfCells="24">
<PointData>
<DataArray type="Int32" Name="Node Tag" format="ascii">
1 2 3 4 5 6 7 8 9 10 11 12 13 14 15 16 17 18 19 20 21 22 23 24 25 26 27 28 29 30 31 32 33 34 35 36 37 38 39 40 41 42 43 44 45 46 47 48 49 50 51 52 53 54 55 56 57 58 59 60 61 62 63 
</DataArray>
<DataArray type="Float32" Name="Disp" NumberOfComponents="3" format="ascii">
0.0000000000e+00 0.0000000000e+00 0.0000000000e+00 
0.0000000000e+00 0.0000000000e+00 0.0000000000e+00 
0.0000000000e+00 0.0000000000e+00 0.0000000000e+00 
0.0000000000e+00 0.0000000000e+00 0.0000000000e+00 
0.0000000000e+00 0.0000000000e+00 0.0000000000e+00 
0.0000000000e+00 0.0000000000e+00 0.0000000000e+00 
0.0000000000e+00 0.0000000000e+00 0.0000000000e+00 
0.0000000000e+00 0.0000000000e+00 0.0000000000e+00 
0.0000000000e+00 0.0000000000e+00 0.0000000000e+00 
1.2913016833e-04 1.2913016833e-04 1.0545362258e-04 
1.8984180645e-04 2.1685169830e-04 1.5328853404e-04 
2.6671987492e-04 2.9758385900e-04 1.4287305862e-04 
2.1685169830e-04 1.8984180645e-04 1.5328853404e-04 
2.0638874233e-04 2.0638874233e-04 -8.5247610185e-06 
2.1733951256e-04 2.6382630597e-04 8.8663255976e-06 
2.9758385900e-04 2.6671987492e-04 1.4287305862e-04 
2.6382630597e-04 2.1733951256e-04 8.8663255976e-06 
2.3425513779e-04 2.3425513780e-04 -1.2627970860e-04 
4.3038594213e-04 4.3038594213e-04 -2.8159304439e-05 
4.5066713126e-04 4.4574698865e-04 -7.5831396195e-05 
4.4814875907e-04 5.6876494953e-04 5.6465889230e-06 
4.4574698865e-04 4.5066713126e-04 -7.5831396195e-05 
5.0803294875e-04 5.0803294875e-04 7.2498040443e-05 
5.3176080020e-04 5.5309582412e-04 6.1229352999e-06 
5.6876494953e-04 4.4814875907e-04 5.6465889234e-06 
5.5309582412e-04 5.3176080020e-04 6.1229353002e-06 
5.3575111885e-04 5.3575111885e-04 -8.8272310060e-07 
2.2096638057e-04 2.2096638057e-04 -7.1539180760e-04 
2.5855285845e-04 2.3997409697e-04 -2.7753667682e-04 
2.8965178897e-04 2.8546444174e-04 4.6937759630e-05 
2.3997409697e-04 2.5855285845e-04 -2.7753667682e-04 
2.2279841953e-04 2.2279841953e-04 -8.1739367310e-05 
2.0705171406e-04 2.0065039484e-04 2.9872625769e-04 
2.8546444174e-04 2.8965178897e-04 4.6937759631e-05 
2.0065039484e-04 2.0705171406e-04 2.9872625769e-04 
1.4374956504e-04 1.4374956504e-04 5.1479369797e-04 
-7.2790230207e-04 -7.2790230208e-04 -6.4647365518e-04 
-7.0675588866e-04 -6.1701412436e-04 -2.9239682060e-04 
-6.6483964135e-04 -6.7461239675e-04 5.7174639613e-05 
-6.1701412436e-04 -7.0675588866e-04 -2.9239682060e-04 
-6.2717415175e-04 -6.2717415175e-04 6.4104560790e-05 
-5.7554312763e-04 -5.8455163072e-04 2.6474928150e-04 
-6.7461239675e-04 -6.6483964135e-04 5.7174639614e-05 
-5.8455163072e-04 -5.7554312764e-04 2.6474928150e-04 
-6.9883582116e-04 -6.9883582116e-04 6.0928375478e-04 
-8.3878085930e-04 -8.3878085930e-04 3.6948272804e-04 
-1.0770538220e-03 -9.2699290219e-04 -6.2752598831e-05 
-1.2299682747e-03 -1.1004953487e-03 -3.8825865759e-04 
-9.2699290219e-04 -1.0770538220e-03 -6.2752598831e-05 
-8.5268727414e-04 -8.5268727415e-04 -5.6727775853e-05 
-8.7950877709e-04 -1.0387635367e-03 6.4000070883e-05 
-1.1004953487e-03 -1.2299682747e-03 -3.8825865759e-04 
-1.0387635367e-03 -8.7950877709e-04 6.4000070883e-05 
-7.7866942522e-04 -7.7866942522e-04 2.0161387780e-04 
-5.5253272804e-04 -5.5253272805e-04 1.1373353696e-03 
-6.5036191000e-04 -7.9076094668e-04 1.0458702643e-04 
-6.7275767081e-04 -9.2452461594e-04 -4.3317316126e-04 
-7.9076094668e-04 -6.5036191000e-04 1.0458702643e-04 
-8.8484538634e-04 -8.8484538634e-04 -6.8622457859e-05 
-9.6239333568e-04 -9.7239754179e-04 -6.6363771096e-05 
-9.2452461593e-04 -6.7275767081e-04 -4.3317316126e-04 
-9.7239754179e-04 -9.6239333568e-04 -6.6363771096e-05 
-1.0801366948e-03 -1.0801366948e-03 1.8325961228e-04 

</DataArray>
</PointData>
<CellData>
<DataArray type="Int32" Name="Element Tag" format="ascii">
1 2 3 4 5 6 7 8 9 10 11 12 13 14 15 16 17 18 19 20 21 22 23 24 
</DataArray>
<DataArray type="Int32" Name="Element Class" format="ascii">
56 56 56 56 56 56 56 56 56 56 56 56 56 56 56 56 56 56 56 56 56 56 56 56 
</DataArray>
</CellData>
<Points>
<DataArray type="Float32" Name="Points" NumberOfComponents="3" format="ascii">
-1.0000000000e+00 -1.0000000000e+00 0.0000000000e+00 
0.0000000000e+00 -1.0000000000e+00 0.0000000000e+00 
1.0000000000e+00 -1.0000000000e+00 0.0000000000e+00 
-1.0000000000e+00 0.0000000000e+00 0.0000000000e+00 
0.0000000000e+00 0.0000000000e+00 0.0000000000e+00 
1.0000000000e+00 0.0000000000e+00 0.0000000000e+00 
-1.0000000000e+00 1.0000000000e+00 0.0000000000e+00 
0.0000000000e+00 1.0000000000e+00 0.0000000000e+00 
1.0000000000e+00 1.0000000000e+00 0.0000000000e+00 
-1.0000000000e+00 -1.0000000000e+00 1.6666666667e+00 
0.0000000000e+00 -1.0000000000e+00 1.6666666667e+00 
1.0000000000e+00 -1.0000000000e+00 1.6666666667e+00 
-1.0000000000e+00 0.0000000000e+00 1.6666666667e+00 
0.0000000000e+00 0.0000000000e+00 1.6666666667e+00 
1.0000000000e+00 0.0000000000e+00 1.6666666667e+00 
-1.0000000000e+00 1.0000000000e+00 1.6666666667e+00 
0.0000000000e+00 1.0000000000e+00 1.6666666667e+00 
1.0000000000e+00 1.0000000000e+00 1.6666666667e+00 
-1.0000000000e+00 -1.0000000000e+00 3.3333333333e+00 
0.0000000000e+00 -1.0000000000e+00 3.3333333333e+00 
1.0000000000e+00 -1.0000000000e+00 3.3333333333e+00 
-1.0000000000e+00 0.0000000000e+00 3.3333333333e+00 
0.0000000000e+00 0.0000000000e+00 3.3333333333e+00 
1.0000000000e+00 0.0000000000e+00 3.3333333333e+00 
-1.0000000000e+00 1.0000000000e+00 3.3333333333e+00 
0.0000000000e+00 1.0000000000e+00 3.3333333333e+00 
1.0000000000e+00 1.0000000000e+00 3.3333333333e+00 
-1.0000000000e+00 -1.0000000000e+00 5.0000000000e+00 
0.0000000000e+00 -1.0000000000e+00 5.0000000000e+00 
1.0000000000e+00 -1.0000000000e+00 5.0000000000e+00 
-1.0000000000e+00 0.0000000000e+00 5.0000000000e+00 
0.0000000000e+00 0.0000000000e+00 5.0000000000e+00 
1.0000000000e+00 0.0000000000e+00 5.0000000000e+00 
-1.0000000000e+00 1.0000000000e+00 5.0000000000e+00 
0.0000000000e+00 1.0000000000e+00 5.0000000000e+00 
1.0000000000e+00 1.0000000000e+00 5.0000000000e+00 
-1.0000000000e+00 -1.0000000000e+00 6.6666666667e+00 
0.0000000000e+00 -1.0000000000e+00 6.6666666667e+00 
1.0000000000e+00 -1.0000000000e+00 6.6666666667e+00 
-1.0000000000e+00 0.0000000000e+00 6.6666666667e+00 
0.0000000000e+00 0.0000000000e+00 6.6666666667e+00 
1.0000000000e+00 0.0000000000e+00 6.6666666667e+00 
-1.0000000000e+00 1.0000000000e+00 6.6666666667e+00 
0.0000000000e+00 1.0000000000e+00 6.6666666667e+00 
1.0000000000e+00 1.0000000000e+00 6.6666666667e+00 
-1.0000000000e+00 -1.0000000000e+00 8.3333333333e+00 
0.0000000000e+00 -1.0000000000e+00 8.3333333333e+00 
1.0000000000e+00 -1.0000000000e+00 8.3333333333e+00 
-1.0000000000e+00 0.0000000000e+00 8.3333333333e+00 
0.0000000000e+00 0.0000000000e+00 8.3333333333e+00 
1.0000000000e+00 0.0000000000e+00 8.3333333333e+00 
-1.0000000000e+00 1.0000000000e+00 8.3333333333e+00 
0.0000000000e+00 1.0000000000e+00 8.3333333333e+00 
1.0000000000e+00 1.0000000000e+00 8.3333333333e+00 
-1.0000000000e+00 -1.0000000000e+00 1.0000000000e+01 
0.0000000000e+00 -1.0000000000e+00 1.0000000000e+01 
1.0000000000e+00 -1.0000000000e+00 1.0000000000e+01 
-1.0000000000e+00 0.0000000000e+00 1.0000000000e+01 
0.0000000000e+00 0.0000000000e+00 1.0000000000e+01 
1.0000000000e+00 0.0000000000e+00 1.0000000000e+01 
-1.0000000000e+00 1.0000000000e+00 1.0000000000e+01 
0.0000000000e+00 1.0000000000e+00 1.0000000000e+01 
1.0000000000e+00 1.0000000000e+00 1.0000000000e+01 
</DataArray>
</Points>
<Cells>
<DataArray type="Int64" Name="connectivity" format="ascii">
0 1 4 3 9 10 13 12 
1 2 5 4 10 11 14 13 
3 4 7 6 12 13 16 15 
4 5 8 7 13 14 17 16 
9 10 13 12 18 19 22 21 
10 11 14 13 19 20 23 22 
12 13 16 15 21 22 25 24 
13 14 17 16 22 23 26 25 
18 19 22 21 27 28 31 30 
19 20 23 22 28 29 32 31 
21 22 25 24 30 31 34 33 
22 23 26 25 31 32 35 34 
27 28 31 30 36 37 40 39 
28 29 32 31 37 38 41 40 
30 31 34 33 39 40 43 42 
31 32 35 34 40 41 44 43 
36 37 40 39 45 46 49 48 
37 38 41 40 46 47 50 49 
39 40 43 42 48 49 52 51 
40 41 44 43 49 50 53 52 
45 46 49 48 54 55 58 57 
46 47 50 49 55 56 59 58 
48 49 52 51 57 58 61 60 
49 50 53 52 58 59 62 61 
</DataArray>
<DataArray type="Int64" Name="offsets" format="ascii">
8 16 24 32 40 48 56 64 72 80 88 96 104 112 120 128 136 144 152 160 168 176 184 192 
</DataArray>
<DataArray type="Int64" Name="types" format="ascii">
12 12 12 12 12 12 12 12 12 12 12 12 12 12 12 12 12 12 12 12 12 12 12 12 
</DataArray>
</Cells>
</Piece>
</UnstructuredGrid>
</VTKFile>
