<VTKFile type="UnstructuredGrid" version="1.0" byte_order="LittleEndian">
<UnstructuredGrid>
<Piece NumberOfPoints="63" NumberOfCells="24">
<PointData>
<DataArray type="Int32" Name="Node Tag" format="ascii">
1 2 3 4 5 6 7 8 9 10 11 12 13 14 15 16 17 18 19 20 21 22 23 24 25 26 27 28 29 30 31 32 33 34 35 36 37 38 39 40 41 42 43 44 45 46 47 48 49 50 51 52 53 54 55 56 57 58 59 60 61 62 63 
</DataArray>
<DataArray type="Float32" Name="Disp" NumberOfComponents="3" format="ascii">
0.0000000000e+00 0.0000000000e+00 0.0000000000e+00 
0.0000000000e+00 0.0000000000e+00 0.0000000000e+00 
0.0000000000e+00 0.0000000000e+00 0.0000000000e+00 
0.0000000000e+00 0.0000000000e+00 0.0000000000e+00 
0.0000000000e+00 0.0000000000e+00 0.0000000000e+00 
0.0000000000e+00 0.0000000000e+00 0.0000000000e+00 
0.0000000000e+00 0.0000000000e+00 0.0000000000e+00 
0.0000000000e+00 0.0000000000e+00 0.0000000000e+00 
0.0000000000e+00 0.0000000000e+00 0.0000000000e+00 
-1.5536164217e-04 -1.5536164217e-04 7.8806460883e-05 
-1.3162271655e-04 -1.0165200115e-04 7.8213897266e-05 
-7.4162968320e-05 -7.5723962265e-05 9.3526915861e-05 
-1.0165200115e-04 -1.3162271655e-04 7.8213897265e-05 
-1.1321766773e-04 -1.1321766773e-04 -8.2661191392e-06 
-9.6400382801e-05 -1.0158784937e-04 7.6536016534e-05 
-7.5723962266e-05 -7.4162968320e-05 9.3526915860e-05 
-1.0158784937e-04 -9.6400382800e-05 7.6536016533e-05 
-1.2259246068e-04 -1.2259246068e-04 1.6169081028e-05 
7.9365435610e-06 7.9365435629e-06 4.7839828595e-04 
-3.0231370255e-05 4.5095493742e-06 1.4211512285e-04 
-1.8908970999e-05 5.4057501545e-05 -6.0949764347e-05 
4.5095493722e-06 -3.0231370254e-05 1.4211512285e-04 
3.5962889841e-05 3.5962889843e-05 6.3647915351e-05 
1.0945870729e-04 4.8729974004e-05 -2.2174817381e-04 
5.4057501543e-05 -1.8908970997e-05 -6.0949764349e-05 
4.8729974002e-05 1.0945870729e-04 -2.2174817381e-04 
1.2735517266e-04 1.2735517266e-04 -4.0995669565e-04 
4.8283668282e-04 4.8283668282e-04 5.0468745354e-04 
4.8416202019e-04 4.8780327043e-04 3.4082923670e-04 
5.1567089904e-04 5.3671445118e-04 1.5526748359e-05 
4.8780327042e-04 4.8416202019e-04 3.4082923670e-04 
4.3515479485e-04 4.3515479485e-04 -7.2928348963e-05 
4.4175006430e-04 4.1802323180e-04 -3.4193631679e-04 
5.3671445118e-04 5.1567089904e-04 1.5526748356e-05 
4.1802323180e-04 4.4175006430e-04 -3.4193631679e-04 
3.6168903516e-04 3.6168903516e-04 -6.8945599276e-04 
9.5000157080e-04 9.5000157081e-04 5.9674909674e-04 
1.0259041229e-03 1.0680885896e-03 3.7608012127e-04 
1.0506560784e-03 1.0025301946e-03 1.1751105962e-04 
1.0680885896e-03 1.0259041229e-03 3.7608012127e-04 
1.0961485571e-03 1.0961485571e-03 8.5731017305e-05 
1.1104161865e-03 1.1111120132e-03 -3.3236383578e-04 
1.0025301946e-03 1.0506560784e-03 1.1751105961e-04 
1.1111120132e-03 1.1104161865e-03 -3.3236383578e-04 
9.8200356708e-04 9.8200356709e-04 -5.9353173465e-04 
1.6329427272e-03 1.6329427272e-03 5.1915757882e-04 
1.5320941637e-03 1.5610567777e-03 2.2405692898e-05 
1.4579474739e-03 1.5379860636e-03 -2.8583872610e-04 
1.5610567777e-03 1.5320941637e-03 2.2405692896e-05 
1.6888872563e-03 1.6888872563e-03 -9.0815829093e-05 
1.6398388679e-03 1.5288936282e-03 -2.8320312268e-05 
1.5379860636e-03 1.4579474739e-03 -2.8583872610e-04 
1.5288936281e-03 1.6398388679e-03 -2.8320312270e-05 
1.6893669300e-03 1.6893669301e-03 -6.6724560614e-05 
1.5648344992e-03 1.5648344992e-03 6.0024655176e-04 
1.5198475708e-03 1.4080853574e-03 -1.7831355359e-04 
1.5149409958e-03 1.3742218168e-03 -3.3329298272e-04 
1.4080853574e-03 1.5198475708e-03 -1.7831355360e-04 
1.3018788924e-03 1.3018788924e-03 -8.9517636033e-05 
1.1879669058e-03 1.3140759102e-03 1.8412538530e-04 
1.3742218168e-03 1.5149409958e-03 -3.3329298273e-04 
1.3140759102e-03 1.1879669058e-03 1.8412538530e-04 
1.1115204914e-03 1.1115204914e-03 5.7397669804e-04 

</DataArray>
</PointData>
<CellData>
<DataArray type="Int32" Name="Element Tag" format="ascii">
1 2 3 4 5 6 7 8 9 10 11 12 13 14 15 16 17 18 19 20 21 22 23 24 
</DataArray>
<DataArray type="Int32" Name="Element Class" format="ascii">
56 56 56 56 56 56 56 56 56 56 56 56 56 56 56 56 56 56 56 56 56 56 56 56 
</DataArray>
</CellData>
<Points>
<DataArray type="Float32" Name="Points" NumberOfComponents="3" format="ascii">
-1.0000000000e+00 -1.0000000000e+00 0.0000000000e+00 
0.0000000000e+00 -1.0000000000e+00 0.0000000000e+00 
1.0000000000e+00 -1.0000000000e+00 0.0000000000e+00 
-1.0000000000e+00 0.0000000000e+00 0.0000000000e+00 
0.0000000000e+00 0.0000000000e+00 0.0000000000e+00 
1.0000000000e+00 0.0000000000e+00 0.0000000000e+00 
-1.0000000000e+00 1.0000000000e+00 0.0000000000e+00 
0.0000000000e+00 1.0000000000e+00 0.0000000000e+00 
1.0000000000e+00 1.0000000000e+00 0.0000000000e+00 
-1.0000000000e+00 -1.0000000000e+00 1.6666666667e+00 
0.0000000000e+00 -1.0000000000e+00 1.6666666667e+00 
1.0000000000e+00 -1.0000000000e+00 1.6666666667e+00 
-1.0000000000e+00 0.0000000000e+00 1.6666666667e+00 
0.0000000000e+00 0.0000000000e+00 1.6666666667e+00 
1.0000000000e+00 0.0000000000e+00 1.6666666667e+00 
-1.0000000000e+00 1.0000000000e+00 1.6666666667e+00 
0.0000000000e+00 1.0000000000e+00 1.6666666667e+00 
1.0000000000e+00 1.0000000000e+00 1.6666666667e+00 
-1.0000000000e+00 -1.0000000000e+00 3.3333333333e+00 
0.0000000000e+00 -1.0000000000e+00 3.3333333333e+00 
1.0000000000e+00 -1.0000000000e+00 3.3333333333e+00 
-1.0000000000e+00 0.0000000000e+00 3.3333333333e+00 
0.0000000000e+00 0.0000000000e+00 3.3333333333e+00 
1.0000000000e+00 0.0000000000e+00 3.3333333333e+00 
-1.0000000000e+00 1.0000000000e+00 3.3333333333e+00 
0.0000000000e+00 1.0000000000e+00 3.3333333333e+00 
1.0000000000e+00 1.0000000000e+00 3.3333333333e+00 
-1.0000000000e+00 -1.0000000000e+00 5.0000000000e+00 
0.0000000000e+00 -1.0000000000e+00 5.0000000000e+00 
1.0000000000e+00 -1.0000000000e+00 5.0000000000e+00 
-1.0000000000e+00 0.0000000000e+00 5.0000000000e+00 
0.0000000000e+00 0.0000000000e+00 5.0000000000e+00 
1.0000000000e+00 0.0000000000e+00 5.0000000000e+00 
-1.0000000000e+00 1.0000000000e+00 5.0000000000e+00 
0.0000000000e+00 1.0000000000e+00 5.0000000000e+00 
1.0000000000e+00 1.0000000000e+00 5.0000000000e+00 
-1.0000000000e+00 -1.0000000000e+00 6.6666666667e+00 
0.0000000000e+00 -1.0000000000e+00 6.6666666667e+00 
1.0000000000e+00 -1.0000000000e+00 6.6666666667e+00 
-1.0000000000e+00 0.0000000000e+00 6.6666666667e+00 
0.0000000000e+00 0.0000000000e+00 6.6666666667e+00 
1.0000000000e+00 0.0000000000e+00 6.6666666667e+00 
-1.0000000000e+00 1.0000000000e+00 6.6666666667e+00 
0.0000000000e+00 1.0000000000e+00 6.6666666667e+00 
1.0000000000e+00 1.0000000000e+00 6.6666666667e+00 
-1.0000000000e+00 -1.0000000000e+00 8.3333333333e+00 
0.0000000000e+00 -1.0000000000e+00 8.3333333333e+00 
1.0000000000e+00 -1.0000000000e+00 8.3333333333e+00 
-1.0000000000e+00 0.0000000000e+00 8.3333333333e+00 
0.0000000000e+00 0.0000000000e+00 8.3333333333e+00 
1.0000000000e+00 0.0000000000e+00 8.3333333333e+00 
-1.0000000000e+00 1.0000000000e+00 8.3333333333e+00 
0.0000000000e+00 1.0000000000e+00 8.3333333333e+00 
1.0000000000e+00 1.0000000000e+00 8.3333333333e+00 
-1.0000000000e+00 -1.0000000000e+00 1.0000000000e+01 
0.0000000000e+00 -1.0000000000e+00 1.0000000000e+01 
1.0000000000e+00 -1.0000000000e+00 1.0000000000e+01 
-1.0000000000e+00 0.0000000000e+00 1.0000000000e+01 
0.0000000000e+00 0.0000000000e+00 1.0000000000e+01 
1.0000000000e+00 0.0000000000e+00 1.0000000000e+01 
-1.0000000000e+00 1.0000000000e+00 1.0000000000e+01 
0.0000000000e+00 1.0000000000e+00 1.0000000000e+01 
1.0000000000e+00 1.0000000000e+00 1.0000000000e+01 
</DataArray>
</Points>
<Cells>
<DataArray type="Int64" Name="connectivity" format="ascii">
0 1 4 3 9 10 13 12 
1 2 5 4 10 11 14 13 
3 4 7 6 12 13 16 15 
4 5 8 7 13 14 17 16 
9 10 13 12 18 19 22 21 
10 11 14 13 19 20 23 22 
12 13 16 15 21 22 25 24 
13 14 17 16 22 23 26 25 
18 19 22 21 27 28 31 30 
19 20 23 22 28 29 32 31 
21 22 25 24 30 31 34 33 
22 23 26 25 31 32 35 34 
27 28 31 30 36 37 40 39 
28 29 32 31 37 38 41 40 
30 31 34 33 39 40 43 42 
31 32 35 34 40 41 44 43 
36 37 40 39 45 46 49 48 
37 38 41 40 46 47 50 49 
39 40 43 42 48 49 52 51 
40 41 44 43 49 50 53 52 
45 46 49 48 54 55 58 57 
46 47 50 49 55 56 59 58 
48 49 52 51 57 58 61 60 
49 50 53 52 58 59 62 61 
</DataArray>
<DataArray type="Int64" Name="offsets" format="ascii">
8 16 24 32 40 48 56 64 72 80 88 96 104 112 120 128 136 144 152 160 168 176 184 192 
</DataArray>
<DataArray type="Int64" Name="types" format="ascii">
12 12 12 12 12 12 12 12 12 12 12 12 12 12 12 12 12 12 12 12 12 12 12 12 
</DataArray>
</Cells>
</Piece>
</UnstructuredGrid>
</VTKFile>
