<VTKFile type="UnstructuredGrid" version="1.0" byte_order="LittleEndian">
<UnstructuredGrid>
<Piece NumberOfPoints="63" NumberOfCells="24">
<PointData>
<DataArray type="Int32" Name="Node Tag" format="ascii">
1 2 3 4 5 6 7 8 9 10 11 12 13 14 15 16 17 18 19 20 21 22 23 24 25 26 27 28 29 30 31 32 33 34 35 36 37 38 39 40 41 42 43 44 45 46 47 48 49 50 51 52 53 54 55 56 57 58 59 60 61 62 63 
</DataArray>
<DataArray type="Float32" Name="Disp" NumberOfComponents="3" format="ascii">
0.0000000000e+00 0.0000000000e+00 0.0000000000e+00 
0.0000000000e+00 0.0000000000e+00 0.0000000000e+00 
0.0000000000e+00 0.0000000000e+00 0.0000000000e+00 
0.0000000000e+00 0.0000000000e+00 0.0000000000e+00 
0.0000000000e+00 0.0000000000e+00 0.0000000000e+00 
0.0000000000e+00 0.0000000000e+00 0.0000000000e+00 
0.0000000000e+00 0.0000000000e+00 0.0000000000e+00 
0.0000000000e+00 0.0000000000e+00 0.0000000000e+00 
0.0000000000e+00 0.0000000000e+00 0.0000000000e+00 
1.0800986224e-04 1.0800986224e-04 -2.5519811840e-05 
6.3340870154e-05 1.9307183379e-05 -1.2258835981e-04 
-6.8550418308e-06 -4.4681972630e-05 -1.4147348661e-04 
1.9307183379e-05 6.3340870154e-05 -1.2258835981e-04 
3.6693363257e-05 3.6693363257e-05 2.5760032025e-05 
1.8852112942e-05 -2.4789784202e-05 -5.0695388040e-06 
-4.4681972630e-05 -6.8550418310e-06 -1.4147348661e-04 
-2.4789784202e-05 1.8852112941e-05 -5.0695388037e-06 
-2.6705200401e-05 -2.6705200401e-05 1.2771073866e-04 
-3.4776517032e-04 -3.4776517032e-04 -4.0849278404e-04 
-2.8015023383e-04 -3.2866510562e-04 -1.5383913201e-04 
-2.3222544230e-04 -3.7147513112e-04 -2.8595761499e-05 
-3.2866510562e-04 -2.8015023383e-04 -1.5383913201e-04 
-3.6180448220e-04 -3.6180448220e-04 -6.4733004946e-05 
-3.9720675096e-04 -3.8328117505e-04 2.3678969940e-04 
-3.7147513112e-04 -2.3222544230e-04 -2.8595761497e-05 
-3.8328117505e-04 -3.9720675096e-04 2.3678969940e-04 
-4.2950173702e-04 -4.2950173702e-04 5.0230586645e-04 
-8.5835020385e-04 -8.5835020385e-04 -2.8333751729e-04 
-8.4789947356e-04 -8.6314714419e-04 -2.2411726721e-04 
-8.5530579466e-04 -8.4194726154e-04 -5.7325633245e-05 
-8.6314714419e-04 -8.4789947357e-04 -2.2411726720e-04 
-8.4261539835e-04 -8.4261539835e-04 8.1929457497e-05 
-8.3650852434e-04 -7.9906277484e-04 1.8851782066e-04 
-8.4194726154e-04 -8.5530579466e-04 -5.7325633243e-05 
-7.9906277484e-04 -8.3650852434e-04 1.8851782066e-04 
-8.0659498880e-04 -8.0659498881e-04 4.7334432841e-04 
-8.6724547731e-04 -8.6724547731e-04 -4.2699013192e-04 
-9.0086741624e-04 -9.7953652554e-04 -2.3092478813e-04 
-9.5974990567e-04 -9.6347403765e-04 -3.1476676298e-05 
-9.7953652553e-04 -9.0086741624e-04 -2.3092478813e-04 
-9.6240033201e-04 -9.6240033202e-04 -5.7024588959e-05 
-1.0170024721e-03 -1.0262072934e-03 2.8193081125e-04 
-9.6347403764e-04 -9.5974990567e-04 -3.1476676295e-05 
-1.0262072934e-03 -1.0170024721e-03 2.8193081125e-04 
-8.8277707836e-04 -8.8277707836e-04 4.6913888189e-04 
-1.5832088164e-03 -1.5832088164e-03 -1.4007598667e-03 
-1.3465898323e-03 -1.5004580135e-03 -4.8374133248e-04 
-1.1831394820e-03 -1.3230171920e-03 3.7787078738e-04 
-1.5004580135e-03 -1.3465898323e-03 -4.8374133248e-04 
-1.5619159732e-03 -1.5619159732e-03 2.3557896402e-05 
-1.5286304552e-03 -1.3838933312e-03 4.5372133884e-04 
-1.3230171920e-03 -1.1831394820e-03 3.7787078739e-04 
-1.3838933312e-03 -1.5286304552e-03 4.5372133884e-04 
-1.6292855976e-03 -1.6292855976e-03 8.4697753247e-04 
-2.7439877569e-03 -2.7439877569e-03 -2.1518621933e-03 
-2.6577979519e-03 -2.5146632657e-03 -6.7236268716e-04 
-2.6431008098e-03 -2.3975334172e-03 3.9538848846e-04 
-2.5146632657e-03 -2.6577979519e-03 -6.7236268716e-04 
-2.4418299101e-03 -2.4418299101e-03 4.2047475123e-05 
-2.3813502873e-03 -2.3472398457e-03 6.0148791605e-04 
-2.3975334172e-03 -2.6431008098e-03 3.9538848846e-04 
-2.3472398457e-03 -2.3813502873e-03 6.0148791605e-04 
-2.2678191463e-03 -2.2678191464e-03 9.2782994742e-04 

</DataArray>
</PointData>
<CellData>
<DataArray type="Int32" Name="Element Tag" format="ascii">
1 2 3 4 5 6 7 8 9 10 11 12 13 14 15 16 17 18 19 20 21 22 23 24 
</DataArray>
<DataArray type="Int32" Name="Element Class" format="ascii">
56 56 56 56 56 56 56 56 56 56 56 56 56 56 56 56 56 56 56 56 56 56 56 56 
</DataArray>
</CellData>
<Points>
<DataArray type="Float32" Name="Points" NumberOfComponents="3" format="ascii">
-1.0000000000e+00 -1.0000000000e+00 0.0000000000e+00 
0.0000000000e+00 -1.0000000000e+00 0.0000000000e+00 
1.0000000000e+00 -1.0000000000e+00 0.0000000000e+00 
-1.0000000000e+00 0.0000000000e+00 0.0000000000e+00 
0.0000000000e+00 0.0000000000e+00 0.0000000000e+00 
1.0000000000e+00 0.0000000000e+00 0.0000000000e+00 
-1.0000000000e+00 1.0000000000e+00 0.0000000000e+00 
0.0000000000e+00 1.0000000000e+00 0.0000000000e+00 
1.0000000000e+00 1.0000000000e+00 0.0000000000e+00 
-1.0000000000e+00 -1.0000000000e+00 1.6666666667e+00 
0.0000000000e+00 -1.0000000000e+00 1.6666666667e+00 
1.0000000000e+00 -1.0000000000e+00 1.6666666667e+00 
-1.0000000000e+00 0.0000000000e+00 1.6666666667e+00 
0.0000000000e+00 0.0000000000e+00 1.6666666667e+00 
1.0000000000e+00 0.0000000000e+00 1.6666666667e+00 
-1.0000000000e+00 1.0000000000e+00 1.6666666667e+00 
0.0000000000e+00 1.0000000000e+00 1.6666666667e+00 
1.0000000000e+00 1.0000000000e+00 1.6666666667e+00 
-1.0000000000e+00 -1.0000000000e+00 3.3333333333e+00 
0.0000000000e+00 -1.0000000000e+00 3.3333333333e+00 
1.0000000000e+00 -1.0000000000e+00 3.3333333333e+00 
-1.0000000000e+00 0.0000000000e+00 3.3333333333e+00 
0.0000000000e+00 0.0000000000e+00 3.3333333333e+00 
1.0000000000e+00 0.0000000000e+00 3.3333333333e+00 
-1.0000000000e+00 1.0000000000e+00 3.3333333333e+00 
0.0000000000e+00 1.0000000000e+00 3.3333333333e+00 
1.0000000000e+00 1.0000000000e+00 3.3333333333e+00 
-1.0000000000e+00 -1.0000000000e+00 5.0000000000e+00 
0.0000000000e+00 -1.0000000000e+00 5.0000000000e+00 
1.0000000000e+00 -1.0000000000e+00 5.0000000000e+00 
-1.0000000000e+00 0.0000000000e+00 5.0000000000e+00 
0.0000000000e+00 0.0000000000e+00 5.0000000000e+00 
1.0000000000e+00 0.0000000000e+00 5.0000000000e+00 
-1.0000000000e+00 1.0000000000e+00 5.0000000000e+00 
0.0000000000e+00 1.0000000000e+00 5.0000000000e+00 
1.0000000000e+00 1.0000000000e+00 5.0000000000e+00 
-1.0000000000e+00 -1.0000000000e+00 6.6666666667e+00 
0.0000000000e+00 -1.0000000000e+00 6.6666666667e+00 
1.0000000000e+00 -1.0000000000e+00 6.6666666667e+00 
-1.0000000000e+00 0.0000000000e+00 6.6666666667e+00 
0.0000000000e+00 0.0000000000e+00 6.6666666667e+00 
1.0000000000e+00 0.0000000000e+00 6.6666666667e+00 
-1.0000000000e+00 1.0000000000e+00 6.6666666667e+00 
0.0000000000e+00 1.0000000000e+00 6.6666666667e+00 
1.0000000000e+00 1.0000000000e+00 6.6666666667e+00 
-1.0000000000e+00 -1.0000000000e+00 8.3333333333e+00 
0.0000000000e+00 -1.0000000000e+00 8.3333333333e+00 
1.0000000000e+00 -1.0000000000e+00 8.3333333333e+00 
-1.0000000000e+00 0.0000000000e+00 8.3333333333e+00 
0.0000000000e+00 0.0000000000e+00 8.3333333333e+00 
1.0000000000e+00 0.0000000000e+00 8.3333333333e+00 
-1.0000000000e+00 1.0000000000e+00 8.3333333333e+00 
0.0000000000e+00 1.0000000000e+00 8.3333333333e+00 
1.0000000000e+00 1.0000000000e+00 8.3333333333e+00 
-1.0000000000e+00 -1.0000000000e+00 1.0000000000e+01 
0.0000000000e+00 -1.0000000000e+00 1.0000000000e+01 
1.0000000000e+00 -1.0000000000e+00 1.0000000000e+01 
-1.0000000000e+00 0.0000000000e+00 1.0000000000e+01 
0.0000000000e+00 0.0000000000e+00 1.0000000000e+01 
1.0000000000e+00 0.0000000000e+00 1.0000000000e+01 
-1.0000000000e+00 1.0000000000e+00 1.0000000000e+01 
0.0000000000e+00 1.0000000000e+00 1.0000000000e+01 
1.0000000000e+00 1.0000000000e+00 1.0000000000e+01 
</DataArray>
</Points>
<Cells>
<DataArray type="Int64" Name="connectivity" format="ascii">
0 1 4 3 9 10 13 12 
1 2 5 4 10 11 14 13 
3 4 7 6 12 13 16 15 
4 5 8 7 13 14 17 16 
9 10 13 12 18 19 22 21 
10 11 14 13 19 20 23 22 
12 13 16 15 21 22 25 24 
13 14 17 16 22 23 26 25 
18 19 22 21 27 28 31 30 
19 20 23 22 28 29 32 31 
21 22 25 24 30 31 34 33 
22 23 26 25 31 32 35 34 
27 28 31 30 36 37 40 39 
28 29 32 31 37 38 41 40 
30 31 34 33 39 40 43 42 
31 32 35 34 40 41 44 43 
36 37 40 39 45 46 49 48 
37 38 41 40 46 47 50 49 
39 40 43 42 48 49 52 51 
40 41 44 43 49 50 53 52 
45 46 49 48 54 55 58 57 
46 47 50 49 55 56 59 58 
48 49 52 51 57 58 61 60 
49 50 53 52 58 59 62 61 
</DataArray>
<DataArray type="Int64" Name="offsets" format="ascii">
8 16 24 32 40 48 56 64 72 80 88 96 104 112 120 128 136 144 152 160 168 176 184 192 
</DataArray>
<DataArray type="Int64" Name="types" format="ascii">
12 12 12 12 12 12 12 12 12 12 12 12 12 12 12 12 12 12 12 12 12 12 12 12 
</DataArray>
</Cells>
</Piece>
</UnstructuredGrid>
</VTKFile>
