<VTKFile type="UnstructuredGrid" version="1.0" byte_order="LittleEndian">
<UnstructuredGrid>
<Piece NumberOfPoints="63" NumberOfCells="24">
<PointData>
<DataArray type="Int32" Name="Node Tag" format="ascii">
1 2 3 4 5 6 7 8 9 10 11 12 13 14 15 16 17 18 19 20 21 22 23 24 25 26 27 28 29 30 31 32 33 34 35 36 37 38 39 40 41 42 43 44 45 46 47 48 49 50 51 52 53 54 55 56 57 58 59 60 61 62 63 
</DataArray>
<DataArray type="Float32" Name="Disp" NumberOfComponents="3" format="ascii">
0.0000000000e+00 0.0000000000e+00 0.0000000000e+00 
0.0000000000e+00 0.0000000000e+00 0.0000000000e+00 
0.0000000000e+00 0.0000000000e+00 0.0000000000e+00 
0.0000000000e+00 0.0000000000e+00 0.0000000000e+00 
0.0000000000e+00 0.0000000000e+00 0.0000000000e+00 
0.0000000000e+00 0.0000000000e+00 0.0000000000e+00 
0.0000000000e+00 0.0000000000e+00 0.0000000000e+00 
0.0000000000e+00 0.0000000000e+00 0.0000000000e+00 
0.0000000000e+00 0.0000000000e+00 0.0000000000e+00 
2.5638330254e-04 2.5638330254e-04 4.0274431167e-04 
2.4167180905e-04 2.6584839938e-04 1.6411563891e-04 
2.7411272903e-04 2.2795829500e-04 -2.5798567298e-06 
2.6584839937e-04 2.4167180905e-04 1.6411563891e-04 
2.5571012888e-04 2.5571012888e-04 -4.4317674551e-05 
2.7953270569e-04 2.1626656388e-04 -9.9696256977e-05 
2.2795829500e-04 2.7411272903e-04 -2.5798567322e-06 
2.1626656387e-04 2.7953270570e-04 -9.9696256978e-05 
2.0940687805e-04 2.0940687805e-04 -2.6407470007e-04 
4.6821269241e-04 4.6821269242e-04 6.5910573381e-04 
4.6395454444e-04 4.7183077650e-04 2.0113569525e-04 
5.0952619284e-04 5.2805257661e-04 -1.3362522628e-04 
4.7183077650e-04 4.6395454444e-04 2.0113569525e-04 
4.9951483222e-04 4.9951483223e-04 3.2437024403e-05 
5.7507955710e-04 4.9824685859e-04 -3.2120559197e-04 
5.2805257660e-04 5.0952619285e-04 -1.3362522629e-04 
4.9824685859e-04 5.7507955710e-04 -3.2120559197e-04 
5.6449082663e-04 5.6449082663e-04 -5.4590657139e-04 
9.6667368402e-04 9.6667368403e-04 8.2800547492e-04 
9.4363313376e-04 9.6679081625e-04 4.8061074548e-04 
9.7438164202e-04 1.0230618063e-03 -3.1978583600e-05 
9.6679081624e-04 9.4363313377e-04 4.8061074548e-04 
8.9368126925e-04 8.9368126926e-04 -6.3201954218e-05 
9.1658971935e-04 8.8734392540e-04 -5.1295664944e-04 
1.0230618063e-03 9.7438164203e-04 -3.1978583607e-05 
8.8734392539e-04 9.1658971936e-04 -5.1295664944e-04 
8.2540909256e-04 8.2540909257e-04 -9.7751508026e-04 
1.9703311120e-03 1.9703311120e-03 1.3697592401e-03 
1.9821521235e-03 2.0367434251e-03 7.8403379067e-04 
1.9455250461e-03 1.8539590429e-03 1.5330286054e-04 
2.0367434251e-03 1.9821521235e-03 7.8403379066e-04 
2.0551148207e-03 2.0551148207e-03 8.5765206924e-05 
2.0710961889e-03 2.0035476818e-03 -6.9928930145e-04 
1.8539590429e-03 1.9455250462e-03 1.5330286054e-04 
2.0035476817e-03 2.0710961889e-03 -6.9928930146e-04 
1.9834466559e-03 1.9834466559e-03 -1.3368410882e-03 
3.4853450772e-03 3.4853450773e-03 1.4456380864e-03 
3.4101795802e-03 3.3737643279e-03 5.7422316289e-04 
3.3805093851e-03 3.3918518578e-03 -7.7654316052e-05 
3.3737643279e-03 3.4101795802e-03 5.7422316289e-04 
3.4936577782e-03 3.4936577782e-03 -1.0088610327e-04 
3.4666332982e-03 3.3235798429e-03 -5.6529571608e-04 
3.3918518578e-03 3.3805093851e-03 -7.7654316059e-05 
3.3235798428e-03 3.4666332982e-03 -5.6529571608e-04 
3.5007274946e-03 3.5007274946e-03 -1.3031368820e-03 
4.3319940432e-03 4.3319940432e-03 1.5451530233e-03 
4.2861967054e-03 4.3204402412e-03 4.1670335922e-04 
4.2787115944e-03 4.3619876817e-03 -6.6861745253e-05 
4.3204402411e-03 4.2861967054e-03 4.1670335921e-04 
4.1993980131e-03 4.1993980132e-03 -7.8267076852e-05 
4.0932251524e-03 4.3341375136e-03 -4.2843508785e-04 
4.3619876816e-03 4.2787115945e-03 -6.6861745260e-05 
4.3341375135e-03 4.0932251524e-03 -4.2843508785e-04 
4.1423728955e-03 4.1423728955e-03 -9.1214060479e-04 

</DataArray>
</PointData>
<CellData>
<DataArray type="Int32" Name="Element Tag" format="ascii">
1 2 3 4 5 6 7 8 9 10 11 12 13 14 15 16 17 18 19 20 21 22 23 24 
</DataArray>
<DataArray type="Int32" Name="Element Class" format="ascii">
56 56 56 56 56 56 56 56 56 56 56 56 56 56 56 56 56 56 56 56 56 56 56 56 
</DataArray>
</CellData>
<Points>
<DataArray type="Float32" Name="Points" NumberOfComponents="3" format="ascii">
-1.0000000000e+00 -1.0000000000e+00 0.0000000000e+00 
0.0000000000e+00 -1.0000000000e+00 0.0000000000e+00 
1.0000000000e+00 -1.0000000000e+00 0.0000000000e+00 
-1.0000000000e+00 0.0000000000e+00 0.0000000000e+00 
0.0000000000e+00 0.0000000000e+00 0.0000000000e+00 
1.0000000000e+00 0.0000000000e+00 0.0000000000e+00 
-1.0000000000e+00 1.0000000000e+00 0.0000000000e+00 
0.0000000000e+00 1.0000000000e+00 0.0000000000e+00 
1.0000000000e+00 1.0000000000e+00 0.0000000000e+00 
-1.0000000000e+00 -1.0000000000e+00 1.6666666667e+00 
0.0000000000e+00 -1.0000000000e+00 1.6666666667e+00 
1.0000000000e+00 -1.0000000000e+00 1.6666666667e+00 
-1.0000000000e+00 0.0000000000e+00 1.6666666667e+00 
0.0000000000e+00 0.0000000000e+00 1.6666666667e+00 
1.0000000000e+00 0.0000000000e+00 1.6666666667e+00 
-1.0000000000e+00 1.0000000000e+00 1.6666666667e+00 
0.0000000000e+00 1.0000000000e+00 1.6666666667e+00 
1.0000000000e+00 1.0000000000e+00 1.6666666667e+00 
-1.0000000000e+00 -1.0000000000e+00 3.3333333333e+00 
0.0000000000e+00 -1.0000000000e+00 3.3333333333e+00 
1.0000000000e+00 -1.0000000000e+00 3.3333333333e+00 
-1.0000000000e+00 0.0000000000e+00 3.3333333333e+00 
0.0000000000e+00 0.0000000000e+00 3.3333333333e+00 
1.0000000000e+00 0.0000000000e+00 3.3333333333e+00 
-1.0000000000e+00 1.0000000000e+00 3.3333333333e+00 
0.0000000000e+00 1.0000000000e+00 3.3333333333e+00 
1.0000000000e+00 1.0000000000e+00 3.3333333333e+00 
-1.0000000000e+00 -1.0000000000e+00 5.0000000000e+00 
0.0000000000e+00 -1.0000000000e+00 5.0000000000e+00 
1.0000000000e+00 -1.0000000000e+00 5.0000000000e+00 
-1.0000000000e+00 0.0000000000e+00 5.0000000000e+00 
0.0000000000e+00 0.0000000000e+00 5.0000000000e+00 
1.0000000000e+00 0.0000000000e+00 5.0000000000e+00 
-1.0000000000e+00 1.0000000000e+00 5.0000000000e+00 
0.0000000000e+00 1.0000000000e+00 5.0000000000e+00 
1.0000000000e+00 1.0000000000e+00 5.0000000000e+00 
-1.0000000000e+00 -1.0000000000e+00 6.6666666667e+00 
0.0000000000e+00 -1.0000000000e+00 6.6666666667e+00 
1.0000000000e+00 -1.0000000000e+00 6.6666666667e+00 
-1.0000000000e+00 0.0000000000e+00 6.6666666667e+00 
0.0000000000e+00 0.0000000000e+00 6.6666666667e+00 
1.0000000000e+00 0.0000000000e+00 6.6666666667e+00 
-1.0000000000e+00 1.0000000000e+00 6.6666666667e+00 
0.0000000000e+00 1.0000000000e+00 6.6666666667e+00 
1.0000000000e+00 1.0000000000e+00 6.6666666667e+00 
-1.0000000000e+00 -1.0000000000e+00 8.3333333333e+00 
0.0000000000e+00 -1.0000000000e+00 8.3333333333e+00 
1.0000000000e+00 -1.0000000000e+00 8.3333333333e+00 
-1.0000000000e+00 0.0000000000e+00 8.3333333333e+00 
0.0000000000e+00 0.0000000000e+00 8.3333333333e+00 
1.0000000000e+00 0.0000000000e+00 8.3333333333e+00 
-1.0000000000e+00 1.0000000000e+00 8.3333333333e+00 
0.0000000000e+00 1.0000000000e+00 8.3333333333e+00 
1.0000000000e+00 1.0000000000e+00 8.3333333333e+00 
-1.0000000000e+00 -1.0000000000e+00 1.0000000000e+01 
0.0000000000e+00 -1.0000000000e+00 1.0000000000e+01 
1.0000000000e+00 -1.0000000000e+00 1.0000000000e+01 
-1.0000000000e+00 0.0000000000e+00 1.0000000000e+01 
0.0000000000e+00 0.0000000000e+00 1.0000000000e+01 
1.0000000000e+00 0.0000000000e+00 1.0000000000e+01 
-1.0000000000e+00 1.0000000000e+00 1.0000000000e+01 
0.0000000000e+00 1.0000000000e+00 1.0000000000e+01 
1.0000000000e+00 1.0000000000e+00 1.0000000000e+01 
</DataArray>
</Points>
<Cells>
<DataArray type="Int64" Name="connectivity" format="ascii">
0 1 4 3 9 10 13 12 
1 2 5 4 10 11 14 13 
3 4 7 6 12 13 16 15 
4 5 8 7 13 14 17 16 
9 10 13 12 18 19 22 21 
10 11 14 13 19 20 23 22 
12 13 16 15 21 22 25 24 
13 14 17 16 22 23 26 25 
18 19 22 21 27 28 31 30 
19 20 23 22 28 29 32 31 
21 22 25 24 30 31 34 33 
22 23 26 25 31 32 35 34 
27 28 31 30 36 37 40 39 
28 29 32 31 37 38 41 40 
30 31 34 33 39 40 43 42 
31 32 35 34 40 41 44 43 
36 37 40 39 45 46 49 48 
37 38 41 40 46 47 50 49 
39 40 43 42 48 49 52 51 
40 41 44 43 49 50 53 52 
45 46 49 48 54 55 58 57 
46 47 50 49 55 56 59 58 
48 49 52 51 57 58 61 60 
49 50 53 52 58 59 62 61 
</DataArray>
<DataArray type="Int64" Name="offsets" format="ascii">
8 16 24 32 40 48 56 64 72 80 88 96 104 112 120 128 136 144 152 160 168 176 184 192 
</DataArray>
<DataArray type="Int64" Name="types" format="ascii">
12 12 12 12 12 12 12 12 12 12 12 12 12 12 12 12 12 12 12 12 12 12 12 12 
</DataArray>
</Cells>
</Piece>
</UnstructuredGrid>
</VTKFile>
