<VTKFile type="UnstructuredGrid" version="1.0" byte_order="LittleEndian">
<UnstructuredGrid>
<Piece NumberOfPoints="63" NumberOfCells="24">
<PointData>
<DataArray type="Int32" Name="Node Tag" format="ascii">
1 2 3 4 5 6 7 8 9 10 11 12 13 14 15 16 17 18 19 20 21 22 23 24 25 26 27 28 29 30 31 32 33 34 35 36 37 38 39 40 41 42 43 44 45 46 47 48 49 50 51 52 53 54 55 56 57 58 59 60 61 62 63 
</DataArray>
<DataArray type="Float32" Name="Disp" NumberOfComponents="3" format="ascii">
0.0000000000e+00 0.0000000000e+00 0.0000000000e+00 
0.0000000000e+00 0.0000000000e+00 0.0000000000e+00 
0.0000000000e+00 0.0000000000e+00 0.0000000000e+00 
0.0000000000e+00 0.0000000000e+00 0.0000000000e+00 
0.0000000000e+00 0.0000000000e+00 0.0000000000e+00 
0.0000000000e+00 0.0000000000e+00 0.0000000000e+00 
0.0000000000e+00 0.0000000000e+00 0.0000000000e+00 
0.0000000000e+00 0.0000000000e+00 0.0000000000e+00 
0.0000000000e+00 0.0000000000e+00 0.0000000000e+00 
1.8456395326e-04 1.8456395326e-04 1.3639341966e-04 
1.1646596985e-04 1.0325375700e-04 -6.3449781442e-06 
4.1150443096e-05 2.3489544821e-05 -1.2745441359e-04 
1.0325375700e-04 1.1646596985e-04 -6.3449781445e-06 
1.0576671666e-04 1.0576671666e-04 1.5137552394e-06 
1.0151049591e-04 6.2229209822e-05 -1.6719119072e-04 
2.3489544821e-05 4.1150443096e-05 -1.2745441359e-04 
6.2229209822e-05 1.0151049591e-04 -1.6719119072e-04 
1.1430956087e-04 1.1430956087e-04 -1.8495302369e-04 
2.1613894216e-04 2.1613894216e-04 8.2651061195e-05 
2.2666491421e-04 2.0961892222e-04 1.2250025923e-04 
2.2134044201e-04 1.2314863392e-04 2.3199741481e-05 
2.0961892221e-04 2.2666491421e-04 1.2250025923e-04 
1.6246403191e-04 1.6246403191e-04 -7.3846555155e-05 
1.1141417325e-04 1.3259428044e-04 -5.7290668189e-05 
1.2314863392e-04 2.2134044201e-04 2.3199741480e-05 
1.3259428044e-04 1.1141417325e-04 -5.7290668190e-05 
9.8373122899e-05 9.8373122899e-05 -1.1238244206e-04 
3.5442908381e-04 3.5442908381e-04 3.0970408376e-04 
3.5821694071e-04 3.5087523606e-04 7.0200502863e-05 
3.3426458957e-04 3.2690069850e-04 -3.4796143433e-05 
3.5087523606e-04 3.5821694071e-04 7.0200502862e-05 
3.9437598040e-04 3.9437598040e-04 7.6586345992e-05 
3.9053233637e-04 4.2219105066e-04 -8.3293613583e-05 
3.2690069849e-04 3.3426458957e-04 -3.4796143435e-05 
4.2219105066e-04 3.9053233638e-04 -8.3293613583e-05 
4.5532234779e-04 4.5532234779e-04 -1.1541229710e-04 
6.8363759755e-04 6.8363759755e-04 -6.2045854930e-05 
6.7126678095e-04 5.7859375459e-04 -8.6295247224e-05 
6.4844488942e-04 6.7612409207e-04 -8.8458787549e-05 
5.7859375458e-04 6.7126678095e-04 -8.6295247224e-05 
5.8110279655e-04 5.8110279655e-04 -7.6042605749e-05 
5.3523184092e-04 5.6287966328e-04 7.7640297652e-05 
6.7612409207e-04 6.4844488942e-04 -8.8458787550e-05 
5.6287966327e-04 5.3523184093e-04 7.7640297652e-05 
6.4911468960e-04 6.4911468961e-04 7.9978303217e-05 
1.7125531161e-04 1.7125531162e-04 -8.1872255864e-04 
3.6581716160e-04 2.5657036195e-04 -1.5729262145e-04 
4.8913397982e-04 3.8045033181e-04 3.5551774553e-04 
2.5657036195e-04 3.6581716160e-04 -1.5729262145e-04 
1.6041395333e-04 1.6041395334e-04 7.8328164588e-05 
1.9162479325e-04 3.4138795779e-04 1.6591513190e-04 
3.8045033180e-04 4.8913397983e-04 3.5551774552e-04 
3.4138795779e-04 1.9162479325e-04 1.6591513190e-04 
1.0743519285e-04 1.0743519286e-04 2.8045138878e-04 
-3.2423691755e-04 -3.2423691755e-04 -1.3546976422e-03 
-2.4282800704e-04 -1.1167459926e-04 -1.8890572699e-04 
-2.2492750652e-04 -9.3517888836e-06 4.1086298307e-04 
-1.1167459926e-04 -2.4282800703e-04 -1.8890572699e-04 
-7.1420797198e-06 -7.1420797151e-06 8.4362644101e-05 
8.9158523886e-05 4.3189442785e-05 1.7164100860e-04 
-9.3517888883e-06 -2.2492750652e-04 4.1086298307e-04 
4.3189442781e-05 8.9158523890e-05 1.7164100860e-04 
1.9489635373e-04 1.9489635373e-04 5.1154330121e-05 

</DataArray>
</PointData>
<CellData>
<DataArray type="Int32" Name="Element Tag" format="ascii">
1 2 3 4 5 6 7 8 9 10 11 12 13 14 15 16 17 18 19 20 21 22 23 24 
</DataArray>
<DataArray type="Int32" Name="Element Class" format="ascii">
56 56 56 56 56 56 56 56 56 56 56 56 56 56 56 56 56 56 56 56 56 56 56 56 
</DataArray>
</CellData>
<Points>
<DataArray type="Float32" Name="Points" NumberOfComponents="3" format="ascii">
-1.0000000000e+00 -1.0000000000e+00 0.0000000000e+00 
0.0000000000e+00 -1.0000000000e+00 0.0000000000e+00 
1.0000000000e+00 -1.0000000000e+00 0.0000000000e+00 
-1.0000000000e+00 0.0000000000e+00 0.0000000000e+00 
0.0000000000e+00 0.0000000000e+00 0.0000000000e+00 
1.0000000000e+00 0.0000000000e+00 0.0000000000e+00 
-1.0000000000e+00 1.0000000000e+00 0.0000000000e+00 
0.0000000000e+00 1.0000000000e+00 0.0000000000e+00 
1.0000000000e+00 1.0000000000e+00 0.0000000000e+00 
-1.0000000000e+00 -1.0000000000e+00 1.6666666667e+00 
0.0000000000e+00 -1.0000000000e+00 1.6666666667e+00 
1.0000000000e+00 -1.0000000000e+00 1.6666666667e+00 
-1.0000000000e+00 0.0000000000e+00 1.6666666667e+00 
0.0000000000e+00 0.0000000000e+00 1.6666666667e+00 
1.0000000000e+00 0.0000000000e+00 1.6666666667e+00 
-1.0000000000e+00 1.0000000000e+00 1.6666666667e+00 
0.0000000000e+00 1.0000000000e+00 1.6666666667e+00 
1.0000000000e+00 1.0000000000e+00 1.6666666667e+00 
-1.0000000000e+00 -1.0000000000e+00 3.3333333333e+00 
0.0000000000e+00 -1.0000000000e+00 3.3333333333e+00 
1.0000000000e+00 -1.0000000000e+00 3.3333333333e+00 
-1.0000000000e+00 0.0000000000e+00 3.3333333333e+00 
0.0000000000e+00 0.0000000000e+00 3.3333333333e+00 
1.0000000000e+00 0.0000000000e+00 3.3333333333e+00 
-1.0000000000e+00 1.0000000000e+00 3.3333333333e+00 
0.0000000000e+00 1.0000000000e+00 3.3333333333e+00 
1.0000000000e+00 1.0000000000e+00 3.3333333333e+00 
-1.0000000000e+00 -1.0000000000e+00 5.0000000000e+00 
0.0000000000e+00 -1.0000000000e+00 5.0000000000e+00 
1.0000000000e+00 -1.0000000000e+00 5.0000000000e+00 
-1.0000000000e+00 0.0000000000e+00 5.0000000000e+00 
0.0000000000e+00 0.0000000000e+00 5.0000000000e+00 
1.0000000000e+00 0.0000000000e+00 5.0000000000e+00 
-1.0000000000e+00 1.0000000000e+00 5.0000000000e+00 
0.0000000000e+00 1.0000000000e+00 5.0000000000e+00 
1.0000000000e+00 1.0000000000e+00 5.0000000000e+00 
-1.0000000000e+00 -1.0000000000e+00 6.6666666667e+00 
0.0000000000e+00 -1.0000000000e+00 6.6666666667e+00 
1.0000000000e+00 -1.0000000000e+00 6.6666666667e+00 
-1.0000000000e+00 0.0000000000e+00 6.6666666667e+00 
0.0000000000e+00 0.0000000000e+00 6.6666666667e+00 
1.0000000000e+00 0.0000000000e+00 6.6666666667e+00 
-1.0000000000e+00 1.0000000000e+00 6.6666666667e+00 
0.0000000000e+00 1.0000000000e+00 6.6666666667e+00 
1.0000000000e+00 1.0000000000e+00 6.6666666667e+00 
-1.0000000000e+00 -1.0000000000e+00 8.3333333333e+00 
0.0000000000e+00 -1.0000000000e+00 8.3333333333e+00 
1.0000000000e+00 -1.0000000000e+00 8.3333333333e+00 
-1.0000000000e+00 0.0000000000e+00 8.3333333333e+00 
0.0000000000e+00 0.0000000000e+00 8.3333333333e+00 
1.0000000000e+00 0.0000000000e+00 8.3333333333e+00 
-1.0000000000e+00 1.0000000000e+00 8.3333333333e+00 
0.0000000000e+00 1.0000000000e+00 8.3333333333e+00 
1.0000000000e+00 1.0000000000e+00 8.3333333333e+00 
-1.0000000000e+00 -1.0000000000e+00 1.0000000000e+01 
0.0000000000e+00 -1.0000000000e+00 1.0000000000e+01 
1.0000000000e+00 -1.0000000000e+00 1.0000000000e+01 
-1.0000000000e+00 0.0000000000e+00 1.0000000000e+01 
0.0000000000e+00 0.0000000000e+00 1.0000000000e+01 
1.0000000000e+00 0.0000000000e+00 1.0000000000e+01 
-1.0000000000e+00 1.0000000000e+00 1.0000000000e+01 
0.0000000000e+00 1.0000000000e+00 1.0000000000e+01 
1.0000000000e+00 1.0000000000e+00 1.0000000000e+01 
</DataArray>
</Points>
<Cells>
<DataArray type="Int64" Name="connectivity" format="ascii">
0 1 4 3 9 10 13 12 
1 2 5 4 10 11 14 13 
3 4 7 6 12 13 16 15 
4 5 8 7 13 14 17 16 
9 10 13 12 18 19 22 21 
10 11 14 13 19 20 23 22 
12 13 16 15 21 22 25 24 
13 14 17 16 22 23 26 25 
18 19 22 21 27 28 31 30 
19 20 23 22 28 29 32 31 
21 22 25 24 30 31 34 33 
22 23 26 25 31 32 35 34 
27 28 31 30 36 37 40 39 
28 29 32 31 37 38 41 40 
30 31 34 33 39 40 43 42 
31 32 35 34 40 41 44 43 
36 37 40 39 45 46 49 48 
37 38 41 40 46 47 50 49 
39 40 43 42 48 49 52 51 
40 41 44 43 49 50 53 52 
45 46 49 48 54 55 58 57 
46 47 50 49 55 56 59 58 
48 49 52 51 57 58 61 60 
49 50 53 52 58 59 62 61 
</DataArray>
<DataArray type="Int64" Name="offsets" format="ascii">
8 16 24 32 40 48 56 64 72 80 88 96 104 112 120 128 136 144 152 160 168 176 184 192 
</DataArray>
<DataArray type="Int64" Name="types" format="ascii">
12 12 12 12 12 12 12 12 12 12 12 12 12 12 12 12 12 12 12 12 12 12 12 12 
</DataArray>
</Cells>
</Piece>
</UnstructuredGrid>
</VTKFile>
